
Host: node2697.swalot.os

Timers On : Wed Apr 21 12:09:24 2021
Timers Off: Wed Apr 21 12:09:33 2021

Wall Time:        8.78 seconds

                                                       Time (seconds)
Module                                       User      System        Wall        Calls

--------------------------------------------------------------------------------------

**************************************************************************************

Host: node2697.swalot.os

Timers On : Wed Apr 21 12:10:29 2021
Timers Off: Wed Apr 21 12:10:37 2021

Wall Time:        8.55 seconds

                                                       Time (seconds)
Module                                       User      System        Wall        Calls

--------------------------------------------------------------------------------------

**************************************************************************************

Host: node2697.swalot.os

Timers On : Wed Apr 21 12:10:59 2021
Timers Off: Wed Apr 21 12:11:08 2021

Wall Time:        8.72 seconds

                                                       Time (seconds)
Module                                       User      System        Wall        Calls

--------------------------------------------------------------------------------------

**************************************************************************************

Host: node2697.swalot.os

Timers On : Wed Apr 21 12:12:09 2021
Timers Off: Wed Apr 21 12:12:18 2021

Wall Time:        8.54 seconds

                                                       Time (seconds)
Module                                       User      System        Wall        Calls

--------------------------------------------------------------------------------------

**************************************************************************************

Host: node2697.swalot.os

Timers On : Wed Apr 21 12:13:22 2021
Timers Off: Wed Apr 21 12:13:31 2021

Wall Time:        8.58 seconds

                                                       Time (seconds)
Module                                       User      System        Wall        Calls

--------------------------------------------------------------------------------------

**************************************************************************************

Host: node2697.swalot.os

Timers On : Wed Apr 21 12:13:43 2021
Timers Off: Wed Apr 21 12:13:52 2021

Wall Time:        8.64 seconds

                                                       Time (seconds)
Module                                       User      System        Wall        Calls

--------------------------------------------------------------------------------------

**************************************************************************************

Host: node2697.swalot.os

Timers On : Wed Apr 21 12:15:05 2021
Timers Off: Wed Apr 21 12:15:14 2021

Wall Time:        8.81 seconds

                                                       Time (seconds)
Module                                       User      System        Wall        Calls

--------------------------------------------------------------------------------------

**************************************************************************************

Host: node2697.swalot.os

Timers On : Wed Apr 21 12:15:56 2021
Timers Off: Wed Apr 21 12:16:00 2021

Wall Time:        4.18 seconds

                                                       Time (seconds)
Module                                       User      System        Wall        Calls

--------------------------------------------------------------------------------------

**************************************************************************************

Host: node2697.swalot.os

Timers On : Wed Apr 21 12:25:25 2021
Timers Off: Wed Apr 21 12:25:25 2021

Wall Time:        0.56 seconds

                                                       Time (seconds)
Module                                       User      System        Wall        Calls

--------------------------------------------------------------------------------------

**************************************************************************************

Host: node2697.swalot.os

Timers On : Wed Apr 21 12:26:55 2021
Timers Off: Wed Apr 21 12:26:58 2021

Wall Time:        3.84 seconds

                                                       Time (seconds)
Module                                       User      System        Wall        Calls

--------------------------------------------------------------------------------------

**************************************************************************************

Host: node2697.swalot.os

Timers On : Wed Apr 21 12:27:44 2021
Timers Off: Wed Apr 21 12:27:48 2021

Wall Time:        3.89 seconds

                                                       Time (seconds)
Module                                       User      System        Wall        Calls

--------------------------------------------------------------------------------------

**************************************************************************************

Host: node2697.swalot.os

Timers On : Wed Apr 21 12:29:16 2021
Timers Off: Wed Apr 21 12:29:17 2021

Wall Time:        0.76 seconds

                                                       Time (seconds)
Module                                       User      System        Wall        Calls

--------------------------------------------------------------------------------------

**************************************************************************************

Host: node2697.swalot.os

Timers On : Wed Apr 21 12:30:19 2021
Timers Off: Wed Apr 21 12:30:23 2021

Wall Time:        4.16 seconds

                                                       Time (seconds)
Module                                       User      System        Wall        Calls

--------------------------------------------------------------------------------------

**************************************************************************************

Host: node2697.swalot.os

Timers On : Wed Apr 21 12:30:25 2021
Timers Off: Wed Apr 21 12:30:26 2021

Wall Time:        1.02 seconds

                                                       Time (seconds)
Module                                       User      System        Wall        Calls

--------------------------------------------------------------------------------------

**************************************************************************************

Host: node2697.swalot.os

Timers On : Wed Apr 21 12:30:45 2021
Timers Off: Wed Apr 21 12:30:54 2021

Wall Time:        8.68 seconds

                                                       Time (seconds)
Module                                       User      System        Wall        Calls

--------------------------------------------------------------------------------------

**************************************************************************************

Host: node2697.swalot.os

Timers On : Wed Apr 21 12:39:48 2021
Timers Off: Wed Apr 21 12:39:49 2021

Wall Time:        1.63 seconds

                                                       Time (seconds)
Module                                       User      System        Wall        Calls

--------------------------------------------------------------------------------------

**************************************************************************************

Host: node2697.swalot.os

Timers On : Wed Apr 21 12:40:47 2021
Timers Off: Wed Apr 21 12:40:48 2021

Wall Time:        1.00 seconds

                                                       Time (seconds)
Module                                       User      System        Wall        Calls

--------------------------------------------------------------------------------------

**************************************************************************************
