
Host: node2697.swalot.os

Timers On : Wed Apr 21 12:09:24 2021
Timers Off: Wed Apr 21 12:09:33 2021

Wall Time:        8.78 seconds

                                                       Time (seconds)
Module                                       User      System        Wall        Calls

--------------------------------------------------------------------------------------

**************************************************************************************

Host: node2697.swalot.os

Timers On : Wed Apr 21 12:10:29 2021
Timers Off: Wed Apr 21 12:10:37 2021

Wall Time:        8.55 seconds

                                                       Time (seconds)
Module                                       User      System        Wall        Calls

--------------------------------------------------------------------------------------

**************************************************************************************

Host: node2697.swalot.os

Timers On : Wed Apr 21 12:10:59 2021
Timers Off: Wed Apr 21 12:11:08 2021

Wall Time:        8.72 seconds

                                                       Time (seconds)
Module                                       User      System        Wall        Calls

--------------------------------------------------------------------------------------

**************************************************************************************

Host: node2697.swalot.os

Timers On : Wed Apr 21 12:12:09 2021
Timers Off: Wed Apr 21 12:12:18 2021

Wall Time:        8.54 seconds

                                                       Time (seconds)
Module                                       User      System        Wall        Calls

--------------------------------------------------------------------------------------

**************************************************************************************

Host: node2697.swalot.os

Timers On : Wed Apr 21 12:13:22 2021
Timers Off: Wed Apr 21 12:13:31 2021

Wall Time:        8.58 seconds

                                                       Time (seconds)
Module                                       User      System        Wall        Calls

--------------------------------------------------------------------------------------

**************************************************************************************

Host: node2697.swalot.os

Timers On : Wed Apr 21 12:13:43 2021
Timers Off: Wed Apr 21 12:13:52 2021

Wall Time:        8.64 seconds

                                                       Time (seconds)
Module                                       User      System        Wall        Calls

--------------------------------------------------------------------------------------

**************************************************************************************

Host: node2697.swalot.os

Timers On : Wed Apr 21 12:15:05 2021
Timers Off: Wed Apr 21 12:15:14 2021

Wall Time:        8.81 seconds

                                                       Time (seconds)
Module                                       User      System        Wall        Calls

--------------------------------------------------------------------------------------

**************************************************************************************

Host: node2697.swalot.os

Timers On : Wed Apr 21 12:15:56 2021
Timers Off: Wed Apr 21 12:16:00 2021

Wall Time:        4.18 seconds

                                                       Time (seconds)
Module                                       User      System        Wall        Calls

--------------------------------------------------------------------------------------

**************************************************************************************

Host: node2697.swalot.os

Timers On : Wed Apr 21 12:25:25 2021
Timers Off: Wed Apr 21 12:25:25 2021

Wall Time:        0.56 seconds

                                                       Time (seconds)
Module                                       User      System        Wall        Calls

--------------------------------------------------------------------------------------

**************************************************************************************

Host: node2697.swalot.os

Timers On : Wed Apr 21 12:26:55 2021
Timers Off: Wed Apr 21 12:26:58 2021

Wall Time:        3.84 seconds

                                                       Time (seconds)
Module                                       User      System        Wall        Calls

--------------------------------------------------------------------------------------

**************************************************************************************

Host: node2697.swalot.os

Timers On : Wed Apr 21 12:27:44 2021
Timers Off: Wed Apr 21 12:27:48 2021

Wall Time:        3.89 seconds

                                                       Time (seconds)
Module                                       User      System        Wall        Calls

--------------------------------------------------------------------------------------

**************************************************************************************

Host: node2697.swalot.os

Timers On : Wed Apr 21 12:29:16 2021
Timers Off: Wed Apr 21 12:29:17 2021

Wall Time:        0.76 seconds

                                                       Time (seconds)
Module                                       User      System        Wall        Calls

--------------------------------------------------------------------------------------

**************************************************************************************

Host: node2697.swalot.os

Timers On : Wed Apr 21 12:30:19 2021
Timers Off: Wed Apr 21 12:30:23 2021

Wall Time:        4.16 seconds

                                                       Time (seconds)
Module                                       User      System        Wall        Calls

--------------------------------------------------------------------------------------

**************************************************************************************

Host: node2697.swalot.os

Timers On : Wed Apr 21 12:30:25 2021
Timers Off: Wed Apr 21 12:30:26 2021

Wall Time:        1.02 seconds

                                                       Time (seconds)
Module                                       User      System        Wall        Calls

--------------------------------------------------------------------------------------

**************************************************************************************

Host: node2697.swalot.os

Timers On : Wed Apr 21 12:30:45 2021
Timers Off: Wed Apr 21 12:30:54 2021

Wall Time:        8.68 seconds

                                                       Time (seconds)
Module                                       User      System        Wall        Calls

--------------------------------------------------------------------------------------

**************************************************************************************

Host: node2697.swalot.os

Timers On : Wed Apr 21 12:39:48 2021
Timers Off: Wed Apr 21 12:39:49 2021

Wall Time:        1.63 seconds

                                                       Time (seconds)
Module                                       User      System        Wall        Calls

--------------------------------------------------------------------------------------

**************************************************************************************

Host: node2697.swalot.os

Timers On : Wed Apr 21 12:40:47 2021
Timers Off: Wed Apr 21 12:40:48 2021

Wall Time:        1.00 seconds

                                                       Time (seconds)
Module                                       User      System        Wall        Calls

--------------------------------------------------------------------------------------

**************************************************************************************

Host: node2697.swalot.os

Timers On : Wed Apr 21 13:20:31 2021
Timers Off: Wed Apr 21 13:20:32 2021

Wall Time:        0.54 seconds

                                                       Time (seconds)
Module                                       User      System        Wall        Calls

--------------------------------------------------------------------------------------

**************************************************************************************

Host: node2697.swalot.os

Timers On : Wed Apr 21 13:20:48 2021
Timers Off: Wed Apr 21 13:20:48 2021

Wall Time:        0.56 seconds

                                                       Time (seconds)
Module                                       User      System        Wall        Calls

--------------------------------------------------------------------------------------

**************************************************************************************

Host: node2697.swalot.os

Timers On : Wed Apr 21 13:21:29 2021
Timers Off: Wed Apr 21 13:21:30 2021

Wall Time:        0.55 seconds

                                                       Time (seconds)
Module                                       User      System        Wall        Calls

--------------------------------------------------------------------------------------

**************************************************************************************

Host: node2697.swalot.os

Timers On : Wed Apr 21 13:21:49 2021
Timers Off: Wed Apr 21 13:21:49 2021

Wall Time:        0.56 seconds

                                                       Time (seconds)
Module                                       User      System        Wall        Calls

--------------------------------------------------------------------------------------

**************************************************************************************

Host: node2697.swalot.os

Timers On : Wed Apr 21 13:24:43 2021
Timers Off: Wed Apr 21 13:24:43 2021

Wall Time:        0.50 seconds

                                                       Time (seconds)
Module                                       User      System        Wall        Calls

--------------------------------------------------------------------------------------

**************************************************************************************

Host: node2697.swalot.os

Timers On : Wed Apr 21 13:26:41 2021
Timers Off: Wed Apr 21 13:26:42 2021

Wall Time:        0.58 seconds

                                                       Time (seconds)
Module                                       User      System        Wall        Calls

--------------------------------------------------------------------------------------

**************************************************************************************

Host: node2697.swalot.os

Timers On : Wed Apr 21 13:27:07 2021
Timers Off: Wed Apr 21 13:27:08 2021

Wall Time:        0.56 seconds

                                                       Time (seconds)
Module                                       User      System        Wall        Calls

--------------------------------------------------------------------------------------

**************************************************************************************

Host: node2697.swalot.os

Timers On : Wed Apr 21 13:27:35 2021
Timers Off: Wed Apr 21 13:27:35 2021

Wall Time:        0.43 seconds

                                                       Time (seconds)
Module                                       User      System        Wall        Calls

--------------------------------------------------------------------------------------

**************************************************************************************

Host: node2697.swalot.os

Timers On : Wed Apr 21 13:27:48 2021
Timers Off: Wed Apr 21 13:27:49 2021

Wall Time:        0.57 seconds

                                                       Time (seconds)
Module                                       User      System        Wall        Calls

--------------------------------------------------------------------------------------

**************************************************************************************

Host: node2697.swalot.os

Timers On : Wed Apr 21 13:30:32 2021
Timers Off: Wed Apr 21 13:30:33 2021

Wall Time:        0.56 seconds

                                                       Time (seconds)
Module                                       User      System        Wall        Calls

--------------------------------------------------------------------------------------

**************************************************************************************

Host: node2697.swalot.os

Timers On : Wed Apr 21 13:31:05 2021
Timers Off: Wed Apr 21 13:31:06 2021

Wall Time:        0.57 seconds

                                                       Time (seconds)
Module                                       User      System        Wall        Calls

--------------------------------------------------------------------------------------

**************************************************************************************

Host: node2697.swalot.os

Timers On : Wed Apr 21 13:32:32 2021
Timers Off: Wed Apr 21 13:32:32 2021

Wall Time:        0.44 seconds

                                                       Time (seconds)
Module                                       User      System        Wall        Calls

--------------------------------------------------------------------------------------

**************************************************************************************

Host: node2697.swalot.os

Timers On : Wed Apr 21 13:32:43 2021
Timers Off: Wed Apr 21 13:32:44 2021

Wall Time:        0.57 seconds

                                                       Time (seconds)
Module                                       User      System        Wall        Calls

--------------------------------------------------------------------------------------

**************************************************************************************

Host: node2697.swalot.os

Timers On : Wed Apr 21 13:32:58 2021
Timers Off: Wed Apr 21 13:32:58 2021

Wall Time:        0.56 seconds

                                                       Time (seconds)
Module                                       User      System        Wall        Calls

--------------------------------------------------------------------------------------

**************************************************************************************

Host: node2697.swalot.os

Timers On : Wed Apr 21 13:33:32 2021
Timers Off: Wed Apr 21 13:33:33 2021

Wall Time:        0.57 seconds

                                                       Time (seconds)
Module                                       User      System        Wall        Calls

--------------------------------------------------------------------------------------

**************************************************************************************

Host: node2697.swalot.os

Timers On : Wed Apr 21 13:34:04 2021
Timers Off: Wed Apr 21 13:34:04 2021

Wall Time:        0.56 seconds

                                                       Time (seconds)
Module                                       User      System        Wall        Calls

--------------------------------------------------------------------------------------

**************************************************************************************

Host: node2697.swalot.os

Timers On : Wed Apr 21 13:34:20 2021
Timers Off: Wed Apr 21 13:34:21 2021

Wall Time:        0.56 seconds

                                                       Time (seconds)
Module                                       User      System        Wall        Calls

--------------------------------------------------------------------------------------

**************************************************************************************

Host: node2697.swalot.os

Timers On : Wed Apr 21 13:34:39 2021
Timers Off: Wed Apr 21 13:34:39 2021

Wall Time:        0.56 seconds

                                                       Time (seconds)
Module                                       User      System        Wall        Calls

--------------------------------------------------------------------------------------

**************************************************************************************

Host: node2697.swalot.os

Timers On : Wed Apr 21 13:36:27 2021
Timers Off: Wed Apr 21 13:36:27 2021

Wall Time:        0.56 seconds

                                                       Time (seconds)
Module                                       User      System        Wall        Calls

--------------------------------------------------------------------------------------

**************************************************************************************

Host: node2697.swalot.os

Timers On : Wed Apr 21 13:37:04 2021
Timers Off: Wed Apr 21 13:37:05 2021

Wall Time:        0.57 seconds

                                                       Time (seconds)
Module                                       User      System        Wall        Calls

--------------------------------------------------------------------------------------

**************************************************************************************

Host: node2697.swalot.os

Timers On : Wed Apr 21 13:37:16 2021
Timers Off: Wed Apr 21 13:37:16 2021

Wall Time:        0.56 seconds

                                                       Time (seconds)
Module                                       User      System        Wall        Calls

--------------------------------------------------------------------------------------

**************************************************************************************

Host: node2697.swalot.os

Timers On : Wed Apr 21 13:37:42 2021
Timers Off: Wed Apr 21 13:37:43 2021

Wall Time:        0.56 seconds

                                                       Time (seconds)
Module                                       User      System        Wall        Calls

--------------------------------------------------------------------------------------

**************************************************************************************

Host: node2697.swalot.os

Timers On : Wed Apr 21 13:38:28 2021
Timers Off: Wed Apr 21 13:38:28 2021

Wall Time:        0.58 seconds

                                                       Time (seconds)
Module                                       User      System        Wall        Calls

--------------------------------------------------------------------------------------

**************************************************************************************

Host: node2697.swalot.os

Timers On : Wed Apr 21 13:41:05 2021
Timers Off: Wed Apr 21 13:41:05 2021

Wall Time:        0.58 seconds

                                                       Time (seconds)
Module                                       User      System        Wall        Calls

--------------------------------------------------------------------------------------

**************************************************************************************

Host: node2697.swalot.os

Timers On : Wed Apr 21 13:45:53 2021
Timers Off: Wed Apr 21 13:45:53 2021

Wall Time:        0.57 seconds

                                                       Time (seconds)
Module                                       User      System        Wall        Calls

--------------------------------------------------------------------------------------

**************************************************************************************

Host: node2697.swalot.os

Timers On : Wed Apr 21 13:46:09 2021
Timers Off: Wed Apr 21 13:46:10 2021

Wall Time:        0.57 seconds

                                                       Time (seconds)
Module                                       User      System        Wall        Calls

--------------------------------------------------------------------------------------

**************************************************************************************

Host: node3305.joltik.os

Timers On : Mon Apr 26 12:11:42 2021
Timers Off: Mon Apr 26 12:11:44 2021

Wall Time:        2.62 seconds

                                                       Time (seconds)
Module                                       User      System        Wall        Calls

--------------------------------------------------------------------------------------

**************************************************************************************

Host: node3305.joltik.os

Timers On : Mon Apr 26 12:12:07 2021
Timers Off: Mon Apr 26 12:12:08 2021

Wall Time:        0.53 seconds

                                                       Time (seconds)
Module                                       User      System        Wall        Calls

--------------------------------------------------------------------------------------

**************************************************************************************

Host: node3305.joltik.os

Timers On : Mon Apr 26 12:13:30 2021
Timers Off: Mon Apr 26 12:13:31 2021

Wall Time:        0.57 seconds

                                                       Time (seconds)
Module                                       User      System        Wall        Calls

--------------------------------------------------------------------------------------

**************************************************************************************

Host: node3305.joltik.os

Timers On : Mon Apr 26 12:13:46 2021
Timers Off: Mon Apr 26 12:13:47 2021

Wall Time:        0.53 seconds

                                                       Time (seconds)
Module                                       User      System        Wall        Calls

--------------------------------------------------------------------------------------

**************************************************************************************

Host: node3305.joltik.os

Timers On : Mon Apr 26 12:29:34 2021
Timers Off: Mon Apr 26 12:29:34 2021

Wall Time:        0.53 seconds

                                                       Time (seconds)
Module                                       User      System        Wall        Calls

--------------------------------------------------------------------------------------

**************************************************************************************

Host: node3305.joltik.os

Timers On : Mon Apr 26 12:30:16 2021
Timers Off: Mon Apr 26 12:30:17 2021

Wall Time:        0.53 seconds

                                                       Time (seconds)
Module                                       User      System        Wall        Calls

--------------------------------------------------------------------------------------

**************************************************************************************

Host: node3305.joltik.os

Timers On : Mon Apr 26 12:30:41 2021
Timers Off: Mon Apr 26 12:30:42 2021

Wall Time:        0.52 seconds

                                                       Time (seconds)
Module                                       User      System        Wall        Calls

--------------------------------------------------------------------------------------

**************************************************************************************

Host: node3305.joltik.os

Timers On : Mon Apr 26 12:31:01 2021
Timers Off: Mon Apr 26 12:31:02 2021

Wall Time:        0.53 seconds

                                                       Time (seconds)
Module                                       User      System        Wall        Calls

--------------------------------------------------------------------------------------

**************************************************************************************

Host: node3305.joltik.os

Timers On : Mon Apr 26 12:31:47 2021
Timers Off: Mon Apr 26 12:31:47 2021

Wall Time:        0.54 seconds

                                                       Time (seconds)
Module                                       User      System        Wall        Calls

--------------------------------------------------------------------------------------

**************************************************************************************

Host: node3305.joltik.os

Timers On : Mon Apr 26 12:33:52 2021
Timers Off: Mon Apr 26 12:33:53 2021

Wall Time:        0.55 seconds

                                                       Time (seconds)
Module                                       User      System        Wall        Calls

--------------------------------------------------------------------------------------

**************************************************************************************

Host: node3305.joltik.os

Timers On : Mon Apr 26 12:34:05 2021
Timers Off: Mon Apr 26 12:34:06 2021

Wall Time:        0.54 seconds

                                                       Time (seconds)
Module                                       User      System        Wall        Calls

--------------------------------------------------------------------------------------

**************************************************************************************

Host: node3305.joltik.os

Timers On : Mon Apr 26 12:35:05 2021
Timers Off: Mon Apr 26 12:35:05 2021

Wall Time:        0.54 seconds

                                                       Time (seconds)
Module                                       User      System        Wall        Calls

--------------------------------------------------------------------------------------

**************************************************************************************

Host: node3305.joltik.os

Timers On : Mon Apr 26 12:35:30 2021
Timers Off: Mon Apr 26 12:35:31 2021

Wall Time:        0.53 seconds

                                                       Time (seconds)
Module                                       User      System        Wall        Calls

--------------------------------------------------------------------------------------

**************************************************************************************

Host: node3305.joltik.os

Timers On : Mon Apr 26 12:36:28 2021
Timers Off: Mon Apr 26 12:36:29 2021

Wall Time:        0.52 seconds

                                                       Time (seconds)
Module                                       User      System        Wall        Calls

--------------------------------------------------------------------------------------

**************************************************************************************

Host: node3305.joltik.os

Timers On : Mon Apr 26 12:41:26 2021
Timers Off: Mon Apr 26 12:41:27 2021

Wall Time:        0.39 seconds

                                                       Time (seconds)
Module                                       User      System        Wall        Calls

--------------------------------------------------------------------------------------

**************************************************************************************

Host: node3305.joltik.os

Timers On : Mon Apr 26 12:41:36 2021
Timers Off: Mon Apr 26 12:41:36 2021

Wall Time:        0.43 seconds

                                                       Time (seconds)
Module                                       User      System        Wall        Calls

--------------------------------------------------------------------------------------

**************************************************************************************

Host: node3305.joltik.os

Timers On : Mon Apr 26 12:41:56 2021
Timers Off: Mon Apr 26 12:41:57 2021

Wall Time:        0.43 seconds

                                                       Time (seconds)
Module                                       User      System        Wall        Calls

--------------------------------------------------------------------------------------

**************************************************************************************

Host: node3305.joltik.os

Timers On : Mon Apr 26 12:44:38 2021
Timers Off: Mon Apr 26 12:44:39 2021

Wall Time:        0.43 seconds

                                                       Time (seconds)
Module                                       User      System        Wall        Calls

--------------------------------------------------------------------------------------

**************************************************************************************

Host: node3305.joltik.os

Timers On : Mon Apr 26 12:51:10 2021
Timers Off: Mon Apr 26 12:51:11 2021

Wall Time:        0.43 seconds

                                                       Time (seconds)
Module                                       User      System        Wall        Calls

--------------------------------------------------------------------------------------

**************************************************************************************

Host: node3305.joltik.os

Timers On : Mon Apr 26 12:52:04 2021
Timers Off: Mon Apr 26 12:52:04 2021

Wall Time:        0.43 seconds

                                                       Time (seconds)
Module                                       User      System        Wall        Calls

--------------------------------------------------------------------------------------

**************************************************************************************

Host: node3305.joltik.os

Timers On : Mon Apr 26 12:52:22 2021
Timers Off: Mon Apr 26 12:52:22 2021

Wall Time:        0.53 seconds

                                                       Time (seconds)
Module                                       User      System        Wall        Calls

--------------------------------------------------------------------------------------

**************************************************************************************

Host: node3305.joltik.os

Timers On : Mon Apr 26 12:54:59 2021
Timers Off: Mon Apr 26 12:54:59 2021

Wall Time:        0.44 seconds

                                                       Time (seconds)
Module                                       User      System        Wall        Calls

--------------------------------------------------------------------------------------

**************************************************************************************

Host: node3305.joltik.os

Timers On : Mon Apr 26 12:55:22 2021
Timers Off: Mon Apr 26 12:55:22 2021

Wall Time:        0.53 seconds

                                                       Time (seconds)
Module                                       User      System        Wall        Calls

--------------------------------------------------------------------------------------

**************************************************************************************

Host: node3305.joltik.os

Timers On : Mon Apr 26 12:55:38 2021
Timers Off: Mon Apr 26 12:55:38 2021

Wall Time:        0.32 seconds

                                                       Time (seconds)
Module                                       User      System        Wall        Calls

--------------------------------------------------------------------------------------

**************************************************************************************

Host: node3305.joltik.os

Timers On : Mon Apr 26 12:55:44 2021
Timers Off: Mon Apr 26 12:55:44 2021

Wall Time:        0.51 seconds

                                                       Time (seconds)
Module                                       User      System        Wall        Calls

--------------------------------------------------------------------------------------

**************************************************************************************

Host: node3305.joltik.os

Timers On : Mon Apr 26 12:56:00 2021
Timers Off: Mon Apr 26 12:56:00 2021

Wall Time:        0.52 seconds

                                                       Time (seconds)
Module                                       User      System        Wall        Calls

--------------------------------------------------------------------------------------

**************************************************************************************

Host: node3305.joltik.os

Timers On : Mon Apr 26 12:56:12 2021
Timers Off: Mon Apr 26 12:56:12 2021

Wall Time:        0.53 seconds

                                                       Time (seconds)
Module                                       User      System        Wall        Calls

--------------------------------------------------------------------------------------

**************************************************************************************

Host: node3305.joltik.os

Timers On : Mon Apr 26 12:57:32 2021
Timers Off: Mon Apr 26 12:57:33 2021

Wall Time:        0.53 seconds

                                                       Time (seconds)
Module                                       User      System        Wall        Calls

--------------------------------------------------------------------------------------

**************************************************************************************

Host: node3305.joltik.os

Timers On : Mon Apr 26 13:06:57 2021
Timers Off: Mon Apr 26 13:14:57 2021

Wall Time:      479.43 seconds

                                                       Time (seconds)
Module                                       User      System        Wall        Calls
Total PK formation time             :      0.050u      0.000s      0.029w      1 calls
HF: Form core H                     :      0.000u      0.000s      0.001w      1 calls
HF: Form S/X                        :      0.000u      0.000s      0.001w      1 calls
HF: Guess                           :      0.233u      0.067s      0.199w      1 calls
SAD Guess                           :      0.217u      0.067s      0.189w      1 calls
HF: Form G                          :      0.000u      0.000s      0.000w      7 calls
JK: D                               :      0.000u      0.000s      0.000w      7 calls
JK: USO2AO                          :      0.000u      0.000s      0.000w      7 calls
JK: JK                              :      0.000u      0.000s      0.000w      7 calls
PK computes JK                      :      0.000u      0.000s      0.000w      7 calls
JK: AO2USO                          :      0.000u      0.000s      0.000w      7 calls
HF: Form F                          :      0.000u      0.000s      0.000w      7 calls
HF: Form D                          :      0.000u      0.000s      0.000w      7 calls
HF: DIIS                            :      0.017u      0.000s      0.003w      6 calls
DIISManager::add_entry              :      0.000u      0.000s      0.000w      6 calls
DIISManager::extrapolate            :      0.000u      0.000s      0.000w      6 calls
bMatrix setup                       :      0.000u      0.000s      0.000w      6 calls
bMatrix pseudoinverse               :      0.000u      0.000s      0.000w      6 calls
New vector                          :      0.000u      0.000s      0.000w      6 calls
HF: Form C                          :      0.000u      0.000s      0.000w      6 calls

--------------------------------------------------------------------------------------
Total PK formation time             :      0.050u      0.000s      0.029w      1 calls
HF: Form core H                     :      0.000u      0.000s      0.001w      1 calls
HF: Form S/X                        :      0.000u      0.000s      0.001w      1 calls
HF: Guess                           :      0.233u      0.067s      0.199w      1 calls
| SAD Guess                         :      0.217u      0.067s      0.189w      1 calls
HF: Form G                          :      0.000u      0.000s      0.000w      7 calls
| JK: D                             :      0.000u      0.000s      0.000w      7 calls
| JK: USO2AO                        :      0.000u      0.000s      0.000w      7 calls
| JK: JK                            :      0.000u      0.000s      0.000w      7 calls
| | PK computes JK                  :      0.000u      0.000s      0.000w      7 calls
| JK: AO2USO                        :      0.000u      0.000s      0.000w      7 calls
HF: Form F                          :      0.000u      0.000s      0.000w      7 calls
HF: Form D                          :      0.000u      0.000s      0.000w      7 calls
HF: DIIS                            :      0.017u      0.000s      0.003w      6 calls
| DIISManager::add_entry            :      0.000u      0.000s      0.000w      6 calls
| DIISManager::extrapolate          :      0.000u      0.000s      0.000w      6 calls
| | bMatrix setup                   :      0.000u      0.000s      0.000w      6 calls
| | bMatrix pseudoinverse           :      0.000u      0.000s      0.000w      6 calls
| | New vector                      :      0.000u      0.000s      0.000w      6 calls
HF: Form C                          :      0.000u      0.000s      0.000w      6 calls

**************************************************************************************

Host: node3305.joltik.os

Timers On : Mon Apr 26 13:15:00 2021
Timers Off: Mon Apr 26 13:15:01 2021

Wall Time:        0.53 seconds

                                                       Time (seconds)
Module                                       User      System        Wall        Calls

--------------------------------------------------------------------------------------

**************************************************************************************

Host: node3305.joltik.os

Timers On : Mon Apr 26 13:16:43 2021
Timers Off: Mon Apr 26 13:16:44 2021

Wall Time:        0.52 seconds

                                                       Time (seconds)
Module                                       User      System        Wall        Calls

--------------------------------------------------------------------------------------

**************************************************************************************

Host: node3305.joltik.os

Timers On : Mon Apr 26 13:16:54 2021
Timers Off: Mon Apr 26 13:16:55 2021

Wall Time:        0.53 seconds

                                                       Time (seconds)
Module                                       User      System        Wall        Calls

--------------------------------------------------------------------------------------

**************************************************************************************

Host: node3305.joltik.os

Timers On : Mon Apr 26 13:21:28 2021
Timers Off: Mon Apr 26 13:21:55 2021

Wall Time:       27.13 seconds

                                                       Time (seconds)
Module                                       User      System        Wall        Calls
Total PK formation time             :      0.050u      0.000s      0.029w      1 calls
HF: Form core H                     :      0.000u      0.000s      0.001w      1 calls
HF: Form S/X                        :      0.000u      0.000s      0.001w      1 calls
HF: Guess                           :      0.250u      0.000s      0.151w      1 calls
SAD Guess                           :      0.233u      0.000s      0.141w      1 calls
HF: Form G                          :      0.000u      0.000s      0.000w      7 calls
JK: D                               :      0.000u      0.000s      0.000w      7 calls
JK: USO2AO                          :      0.000u      0.000s      0.000w      7 calls
JK: JK                              :      0.000u      0.000s      0.000w      7 calls
PK computes JK                      :      0.000u      0.000s      0.000w      7 calls
JK: AO2USO                          :      0.000u      0.000s      0.000w      7 calls
HF: Form F                          :      0.000u      0.000s      0.000w      7 calls
HF: Form D                          :      0.000u      0.000s      0.000w      7 calls
HF: DIIS                            :      0.000u      0.000s      0.003w      6 calls
DIISManager::add_entry              :      0.000u      0.000s      0.000w      6 calls
DIISManager::extrapolate            :      0.000u      0.000s      0.000w      6 calls
bMatrix setup                       :      0.000u      0.000s      0.000w      6 calls
bMatrix pseudoinverse               :      0.000u      0.000s      0.000w      6 calls
New vector                          :      0.000u      0.000s      0.000w      6 calls
HF: Form C                          :      0.000u      0.000s      0.000w      6 calls

--------------------------------------------------------------------------------------
Total PK formation time             :      0.050u      0.000s      0.029w      1 calls
HF: Form core H                     :      0.000u      0.000s      0.001w      1 calls
HF: Form S/X                        :      0.000u      0.000s      0.001w      1 calls
HF: Guess                           :      0.250u      0.000s      0.151w      1 calls
| SAD Guess                         :      0.233u      0.000s      0.141w      1 calls
HF: Form G                          :      0.000u      0.000s      0.000w      7 calls
| JK: D                             :      0.000u      0.000s      0.000w      7 calls
| JK: USO2AO                        :      0.000u      0.000s      0.000w      7 calls
| JK: JK                            :      0.000u      0.000s      0.000w      7 calls
| | PK computes JK                  :      0.000u      0.000s      0.000w      7 calls
| JK: AO2USO                        :      0.000u      0.000s      0.000w      7 calls
HF: Form F                          :      0.000u      0.000s      0.000w      7 calls
HF: Form D                          :      0.000u      0.000s      0.000w      7 calls
HF: DIIS                            :      0.000u      0.000s      0.003w      6 calls
| DIISManager::add_entry            :      0.000u      0.000s      0.000w      6 calls
| DIISManager::extrapolate          :      0.000u      0.000s      0.000w      6 calls
| | bMatrix setup                   :      0.000u      0.000s      0.000w      6 calls
| | bMatrix pseudoinverse           :      0.000u      0.000s      0.000w      6 calls
| | New vector                      :      0.000u      0.000s      0.000w      6 calls
HF: Form C                          :      0.000u      0.000s      0.000w      6 calls

**************************************************************************************

Host: node3305.joltik.os

Timers On : Mon Apr 26 13:23:08 2021
Timers Off: Mon Apr 26 13:23:09 2021

Wall Time:        0.54 seconds

                                                       Time (seconds)
Module                                       User      System        Wall        Calls

--------------------------------------------------------------------------------------

**************************************************************************************

Host: node3305.joltik.os

Timers On : Mon Apr 26 13:27:25 2021
Timers Off: Mon Apr 26 13:27:26 2021

Wall Time:        0.56 seconds

                                                       Time (seconds)
Module                                       User      System        Wall        Calls

--------------------------------------------------------------------------------------

**************************************************************************************

Host: node3305.joltik.os

Timers On : Mon Apr 26 13:27:45 2021
Timers Off: Mon Apr 26 13:27:46 2021

Wall Time:        0.53 seconds

                                                       Time (seconds)
Module                                       User      System        Wall        Calls

--------------------------------------------------------------------------------------

**************************************************************************************

Host: node3305.joltik.os

Timers On : Mon Apr 26 13:28:22 2021
Timers Off: Mon Apr 26 13:28:22 2021

Wall Time:        0.54 seconds

                                                       Time (seconds)
Module                                       User      System        Wall        Calls

--------------------------------------------------------------------------------------

**************************************************************************************

Host: node3305.joltik.os

Timers On : Mon Apr 26 13:30:00 2021
Timers Off: Mon Apr 26 13:31:46 2021

Wall Time:      105.86 seconds

                                                       Time (seconds)
Module                                       User      System        Wall        Calls
Total PK formation time             :      0.050u      0.000s      0.029w      1 calls
HF: Form core H                     :      0.000u      0.000s      0.001w      1 calls
HF: Form S/X                        :      0.000u      0.000s      0.001w      1 calls
HF: Guess                           :      0.250u      0.000s      0.151w      1 calls
SAD Guess                           :      0.233u      0.000s      0.141w      1 calls
HF: Form G                          :      0.000u      0.000s      0.000w      7 calls
JK: D                               :      0.000u      0.000s      0.000w      7 calls
JK: USO2AO                          :      0.000u      0.000s      0.000w      7 calls
JK: JK                              :      0.000u      0.000s      0.000w      7 calls
PK computes JK                      :      0.000u      0.000s      0.000w      7 calls
JK: AO2USO                          :      0.000u      0.000s      0.000w      7 calls
HF: Form F                          :      0.000u      0.000s      0.000w      7 calls
HF: Form D                          :      0.000u      0.000s      0.000w      7 calls
HF: DIIS                            :      0.017u      0.000s      0.003w      6 calls
DIISManager::add_entry              :      0.000u      0.000s      0.000w      6 calls
DIISManager::extrapolate            :      0.000u      0.000s      0.000w      6 calls
bMatrix setup                       :      0.000u      0.000s      0.000w      6 calls
bMatrix pseudoinverse               :      0.000u      0.000s      0.000w      6 calls
New vector                          :      0.000u      0.000s      0.000w      6 calls
HF: Form C                          :      0.000u      0.000s      0.000w      6 calls

--------------------------------------------------------------------------------------
Total PK formation time             :      0.050u      0.000s      0.029w      1 calls
HF: Form core H                     :      0.000u      0.000s      0.001w      1 calls
HF: Form S/X                        :      0.000u      0.000s      0.001w      1 calls
HF: Guess                           :      0.250u      0.000s      0.151w      1 calls
| SAD Guess                         :      0.233u      0.000s      0.141w      1 calls
HF: Form G                          :      0.000u      0.000s      0.000w      7 calls
| JK: D                             :      0.000u      0.000s      0.000w      7 calls
| JK: USO2AO                        :      0.000u      0.000s      0.000w      7 calls
| JK: JK                            :      0.000u      0.000s      0.000w      7 calls
| | PK computes JK                  :      0.000u      0.000s      0.000w      7 calls
| JK: AO2USO                        :      0.000u      0.000s      0.000w      7 calls
HF: Form F                          :      0.000u      0.000s      0.000w      7 calls
HF: Form D                          :      0.000u      0.000s      0.000w      7 calls
HF: DIIS                            :      0.017u      0.000s      0.003w      6 calls
| DIISManager::add_entry            :      0.000u      0.000s      0.000w      6 calls
| DIISManager::extrapolate          :      0.000u      0.000s      0.000w      6 calls
| | bMatrix setup                   :      0.000u      0.000s      0.000w      6 calls
| | bMatrix pseudoinverse           :      0.000u      0.000s      0.000w      6 calls
| | New vector                      :      0.000u      0.000s      0.000w      6 calls
HF: Form C                          :      0.000u      0.000s      0.000w      6 calls

**************************************************************************************

Host: node3305.joltik.os

Timers On : Mon Apr 26 13:31:58 2021
Timers Off: Mon Apr 26 13:31:59 2021

Wall Time:        0.53 seconds

                                                       Time (seconds)
Module                                       User      System        Wall        Calls

--------------------------------------------------------------------------------------

**************************************************************************************

Host: node3305.joltik.os

Timers On : Mon Apr 26 13:32:51 2021
Timers Off: Mon Apr 26 13:32:52 2021

Wall Time:        0.53 seconds

                                                       Time (seconds)
Module                                       User      System        Wall        Calls

--------------------------------------------------------------------------------------

**************************************************************************************

Host: node3305.joltik.os

Timers On : Mon Apr 26 13:33:46 2021
Timers Off: Mon Apr 26 13:33:46 2021

Wall Time:        0.54 seconds

                                                       Time (seconds)
Module                                       User      System        Wall        Calls

--------------------------------------------------------------------------------------

**************************************************************************************

Host: node3305.joltik.os

Timers On : Mon Apr 26 13:39:25 2021
Timers Off: Mon Apr 26 13:39:26 2021

Wall Time:        0.49 seconds

                                                       Time (seconds)
Module                                       User      System        Wall        Calls

--------------------------------------------------------------------------------------

**************************************************************************************

Host: node2605.swalot.os

Timers On : Mon Apr 26 14:41:16 2021
Timers Off: Mon Apr 26 14:41:17 2021

Wall Time:        0.73 seconds

                                                       Time (seconds)
Module                                       User      System        Wall        Calls

--------------------------------------------------------------------------------------

**************************************************************************************

Host: node2605.swalot.os

Timers On : Mon Apr 26 14:42:08 2021
Timers Off: Mon Apr 26 14:42:09 2021

Wall Time:        0.72 seconds

                                                       Time (seconds)
Module                                       User      System        Wall        Calls

--------------------------------------------------------------------------------------

**************************************************************************************

Host: node2605.swalot.os

Timers On : Mon Apr 26 14:42:52 2021
Timers Off: Mon Apr 26 14:42:52 2021

Wall Time:        0.73 seconds

                                                       Time (seconds)
Module                                       User      System        Wall        Calls

--------------------------------------------------------------------------------------

**************************************************************************************

Host: node2605.swalot.os

Timers On : Mon Apr 26 14:46:04 2021
Timers Off: Mon Apr 26 14:46:05 2021

Wall Time:        0.74 seconds

                                                       Time (seconds)
Module                                       User      System        Wall        Calls

--------------------------------------------------------------------------------------

**************************************************************************************

Host: node2605.swalot.os

Timers On : Mon Apr 26 14:51:13 2021
Timers Off: Mon Apr 26 14:51:14 2021

Wall Time:        0.70 seconds

                                                       Time (seconds)
Module                                       User      System        Wall        Calls

--------------------------------------------------------------------------------------

**************************************************************************************

Host: node2605.swalot.os

Timers On : Mon Apr 26 14:51:31 2021
Timers Off: Mon Apr 26 14:51:32 2021

Wall Time:        0.72 seconds

                                                       Time (seconds)
Module                                       User      System        Wall        Calls

--------------------------------------------------------------------------------------

**************************************************************************************

Host: node2605.swalot.os

Timers On : Mon Apr 26 14:51:58 2021
Timers Off: Mon Apr 26 14:51:58 2021

Wall Time:        0.72 seconds

                                                       Time (seconds)
Module                                       User      System        Wall        Calls

--------------------------------------------------------------------------------------

**************************************************************************************

Host: node2605.swalot.os

Timers On : Mon Apr 26 14:52:29 2021
Timers Off: Mon Apr 26 14:52:30 2021

Wall Time:        0.72 seconds

                                                       Time (seconds)
Module                                       User      System        Wall        Calls

--------------------------------------------------------------------------------------

**************************************************************************************

Host: node2623.swalot.os

Timers On : Tue Apr 27 12:27:30 2021
Timers Off: Tue Apr 27 12:27:31 2021

Wall Time:        0.61 seconds

                                                       Time (seconds)
Module                                       User      System        Wall        Calls

--------------------------------------------------------------------------------------

**************************************************************************************

Host: node2623.swalot.os

Timers On : Tue Apr 27 12:28:06 2021
Timers Off: Tue Apr 27 12:28:07 2021

Wall Time:        1.16 seconds

                                                       Time (seconds)
Module                                       User      System        Wall        Calls

--------------------------------------------------------------------------------------

**************************************************************************************

Host: node2623.swalot.os

Timers On : Tue Apr 27 12:31:35 2021
Timers Off: Tue Apr 27 12:31:36 2021

Wall Time:        0.64 seconds

                                                       Time (seconds)
Module                                       User      System        Wall        Calls

--------------------------------------------------------------------------------------

**************************************************************************************

Host: node2623.swalot.os

Timers On : Tue Apr 27 12:33:09 2021
Timers Off: Tue Apr 27 12:33:10 2021

Wall Time:        0.59 seconds

                                                       Time (seconds)
Module                                       User      System        Wall        Calls

--------------------------------------------------------------------------------------

**************************************************************************************

Host: node2623.swalot.os

Timers On : Tue Apr 27 12:40:24 2021
Timers Off: Tue Apr 27 12:40:25 2021

Wall Time:        0.60 seconds

                                                       Time (seconds)
Module                                       User      System        Wall        Calls

--------------------------------------------------------------------------------------

**************************************************************************************

Host: node2623.swalot.os

Timers On : Tue Apr 27 12:41:41 2021
Timers Off: Tue Apr 27 12:41:41 2021

Wall Time:        0.58 seconds

                                                       Time (seconds)
Module                                       User      System        Wall        Calls

--------------------------------------------------------------------------------------

**************************************************************************************

Host: node2623.swalot.os

Timers On : Tue Apr 27 12:42:24 2021
Timers Off: Tue Apr 27 12:42:24 2021

Wall Time:        0.61 seconds

                                                       Time (seconds)
Module                                       User      System        Wall        Calls

--------------------------------------------------------------------------------------

**************************************************************************************

Host: node2623.swalot.os

Timers On : Tue Apr 27 12:43:22 2021
Timers Off: Tue Apr 27 12:43:23 2021

Wall Time:        0.59 seconds

                                                       Time (seconds)
Module                                       User      System        Wall        Calls

--------------------------------------------------------------------------------------

**************************************************************************************

Host: node2623.swalot.os

Timers On : Tue Apr 27 12:48:00 2021
Timers Off: Tue Apr 27 12:48:01 2021

Wall Time:        0.62 seconds

                                                       Time (seconds)
Module                                       User      System        Wall        Calls

--------------------------------------------------------------------------------------

**************************************************************************************

Host: node2623.swalot.os

Timers On : Tue Apr 27 12:48:12 2021
Timers Off: Tue Apr 27 12:48:12 2021

Wall Time:        0.59 seconds

                                                       Time (seconds)
Module                                       User      System        Wall        Calls

--------------------------------------------------------------------------------------

**************************************************************************************

Host: node2623.swalot.os

Timers On : Tue Apr 27 12:50:55 2021
Timers Off: Tue Apr 27 12:50:56 2021

Wall Time:        0.64 seconds

                                                       Time (seconds)
Module                                       User      System        Wall        Calls

--------------------------------------------------------------------------------------

**************************************************************************************

Host: node2623.swalot.os

Timers On : Tue Apr 27 12:51:35 2021
Timers Off: Tue Apr 27 12:51:36 2021

Wall Time:        0.64 seconds

                                                       Time (seconds)
Module                                       User      System        Wall        Calls

--------------------------------------------------------------------------------------

**************************************************************************************

Host: node2623.swalot.os

Timers On : Tue Apr 27 12:52:35 2021
Timers Off: Tue Apr 27 12:52:36 2021

Wall Time:        0.68 seconds

                                                       Time (seconds)
Module                                       User      System        Wall        Calls

--------------------------------------------------------------------------------------

**************************************************************************************

Host: node2623.swalot.os

Timers On : Tue Apr 27 12:54:10 2021
Timers Off: Tue Apr 27 12:54:11 2021

Wall Time:        0.64 seconds

                                                       Time (seconds)
Module                                       User      System        Wall        Calls

--------------------------------------------------------------------------------------

**************************************************************************************

Host: node2623.swalot.os

Timers On : Tue Apr 27 12:54:44 2021
Timers Off: Tue Apr 27 12:54:45 2021

Wall Time:        0.60 seconds

                                                       Time (seconds)
Module                                       User      System        Wall        Calls

--------------------------------------------------------------------------------------

**************************************************************************************

Host: node2623.swalot.os

Timers On : Tue Apr 27 12:56:09 2021
Timers Off: Tue Apr 27 12:56:10 2021

Wall Time:        0.67 seconds

                                                       Time (seconds)
Module                                       User      System        Wall        Calls

--------------------------------------------------------------------------------------

**************************************************************************************

Host: node2623.swalot.os

Timers On : Tue Apr 27 13:02:59 2021
Timers Off: Tue Apr 27 13:03:00 2021

Wall Time:        0.70 seconds

                                                       Time (seconds)
Module                                       User      System        Wall        Calls

--------------------------------------------------------------------------------------

**************************************************************************************

Host: node2623.swalot.os

Timers On : Tue Apr 27 13:03:59 2021
Timers Off: Tue Apr 27 13:03:59 2021

Wall Time:        0.59 seconds

                                                       Time (seconds)
Module                                       User      System        Wall        Calls

--------------------------------------------------------------------------------------

**************************************************************************************

Host: node2623.swalot.os

Timers On : Tue Apr 27 13:04:19 2021
Timers Off: Tue Apr 27 13:04:20 2021

Wall Time:        0.62 seconds

                                                       Time (seconds)
Module                                       User      System        Wall        Calls

--------------------------------------------------------------------------------------

**************************************************************************************

Host: node2623.swalot.os

Timers On : Tue Apr 27 13:09:39 2021
Timers Off: Tue Apr 27 13:09:39 2021

Wall Time:        0.71 seconds

                                                       Time (seconds)
Module                                       User      System        Wall        Calls

--------------------------------------------------------------------------------------

**************************************************************************************

Host: node2623.swalot.os

Timers On : Tue Apr 27 13:10:45 2021
Timers Off: Tue Apr 27 13:10:45 2021

Wall Time:        0.65 seconds

                                                       Time (seconds)
Module                                       User      System        Wall        Calls

--------------------------------------------------------------------------------------

**************************************************************************************

Host: node2623.swalot.os

Timers On : Tue Apr 27 13:38:31 2021
Timers Off: Tue Apr 27 14:04:44 2021

Wall Time:     1573.30 seconds

                                                       Time (seconds)
Module                                       User      System        Wall        Calls
Total PK formation time             :      0.667u      0.000s      0.413w     12 calls
HF: Form core H                     :      0.033u      0.000s      0.010w     12 calls
HF: Form S/X                        :      0.000u      0.000s      0.014w     12 calls
HF: Guess                           :      2.133u      0.017s      1.546w     12 calls
SAD Guess                           :      1.883u      0.017s      1.396w     12 calls
HF: Form G                          :      0.000u      0.000s      0.005w     69 calls
JK: D                               :      0.000u      0.000s      0.000w     69 calls
JK: USO2AO                          :      0.000u      0.000s      0.001w     69 calls
JK: JK                              :      0.000u      0.000s      0.001w     69 calls
PK computes JK                      :      0.000u      0.000s      0.001w     69 calls
JK: AO2USO                          :      0.000u      0.000s      0.000w     69 calls
HF: Form F                          :      0.000u      0.000s      0.001w     69 calls
HF: Form D                          :      0.000u      0.000s      0.001w     69 calls
HF: DIIS                            :      0.050u      0.017s      0.030w     57 calls
DIISManager::add_entry              :      0.000u      0.000s      0.005w     57 calls
DIISManager::extrapolate            :      0.033u      0.017s      0.003w     57 calls
bMatrix setup                       :      0.017u      0.017s      0.001w     57 calls
bMatrix pseudoinverse               :      0.000u      0.000s      0.001w     57 calls
New vector                          :      0.000u      0.000s      0.001w     57 calls
HF: Form C                          :      0.000u      0.000s      0.001w     57 calls
CIWave: CIvect write                :      0.000u      0.000s      0.001w     84 calls
CIWave: CIvect read                 :      0.000u      0.000s      0.001w    234 calls
CIWave: s2                          :      0.000u      0.000s      0.000w     24 calls
CIWave: s1                          :      0.000u      0.000s      0.000w     48 calls
CIWave: s3                          :      0.000u      0.000s      0.000w     48 calls
CIWave: s3_mt                       :      0.000u      0.000s      0.000w     96 calls

--------------------------------------------------------------------------------------
Total PK formation time             :      0.667u      0.000s      0.413w     12 calls
HF: Form core H                     :      0.033u      0.000s      0.010w     12 calls
HF: Form S/X                        :      0.000u      0.000s      0.014w     12 calls
HF: Guess                           :      2.133u      0.017s      1.546w     12 calls
| SAD Guess                         :      1.883u      0.017s      1.396w     12 calls
HF: Form G                          :      0.000u      0.000s      0.005w     69 calls
| JK: D                             :      0.000u      0.000s      0.000w     69 calls
| JK: USO2AO                        :      0.000u      0.000s      0.001w     69 calls
| JK: JK                            :      0.000u      0.000s      0.001w     69 calls
| | PK computes JK                  :      0.000u      0.000s      0.001w     69 calls
| JK: AO2USO                        :      0.000u      0.000s      0.000w     69 calls
HF: Form F                          :      0.000u      0.000s      0.001w     69 calls
HF: Form D                          :      0.000u      0.000s      0.001w     69 calls
HF: DIIS                            :      0.050u      0.017s      0.030w     57 calls
| DIISManager::add_entry            :      0.000u      0.000s      0.005w     57 calls
| DIISManager::extrapolate          :      0.033u      0.017s      0.003w     57 calls
| | bMatrix setup                   :      0.017u      0.017s      0.001w     57 calls
| | bMatrix pseudoinverse           :      0.000u      0.000s      0.001w     57 calls
| | New vector                      :      0.000u      0.000s      0.001w     57 calls
HF: Form C                          :      0.000u      0.000s      0.001w     57 calls
CIWave: CIvect write                :      0.000u      0.000s      0.001w     84 calls
CIWave: CIvect read                 :      0.000u      0.000s      0.001w    234 calls
CIWave: s2                          :      0.000u      0.000s      0.000w     24 calls
CIWave: s1                          :      0.000u      0.000s      0.000w     48 calls
CIWave: s3                          :      0.000u      0.000s      0.000w     48 calls
| CIWave: s3_mt                     :      0.000u      0.000s      0.000w     96 calls

**************************************************************************************

Host: node2623.swalot.os

Timers On : Tue Apr 27 14:04:49 2021
Timers Off: Tue Apr 27 14:10:38 2021

Wall Time:      348.60 seconds

                                                       Time (seconds)
Module                                       User      System        Wall        Calls
Total PK formation time             :      0.050u      0.000s      0.035w      1 calls
HF: Form core H                     :      0.017u      0.000s      0.001w      1 calls
HF: Form S/X                        :      0.000u      0.000s      0.000w      1 calls
HF: Guess                           :      0.167u      0.000s      0.108w      1 calls
SAD Guess                           :      0.150u      0.000s      0.096w      1 calls
HF: Form G                          :      0.000u      0.000s      0.000w      6 calls
JK: D                               :      0.000u      0.000s      0.000w      6 calls
JK: USO2AO                          :      0.000u      0.000s      0.000w      6 calls
JK: JK                              :      0.000u      0.000s      0.000w      6 calls
PK computes JK                      :      0.000u      0.000s      0.000w      6 calls
JK: AO2USO                          :      0.000u      0.000s      0.000w      6 calls
HF: Form F                          :      0.000u      0.000s      0.000w      6 calls
HF: Form D                          :      0.000u      0.000s      0.000w      6 calls
HF: DIIS                            :      0.000u      0.000s      0.003w      5 calls
DIISManager::add_entry              :      0.000u      0.000s      0.000w      5 calls
DIISManager::extrapolate            :      0.000u      0.000s      0.000w      5 calls
bMatrix setup                       :      0.000u      0.000s      0.000w      5 calls
bMatrix pseudoinverse               :      0.000u      0.000s      0.000w      5 calls
New vector                          :      0.000u      0.000s      0.000w      5 calls
HF: Form C                          :      0.000u      0.000s      0.000w      5 calls
CIWave: CIvect write                :      0.000u      0.000s      0.000w     14 calls
CIWave: CIvect read                 :      0.000u      0.000s      0.000w     39 calls
CIWave: s2                          :      0.000u      0.000s      0.000w      4 calls
CIWave: s1                          :      0.000u      0.000s      0.000w      8 calls
CIWave: s3                          :      0.000u      0.000s      0.000w      8 calls
CIWave: s3_mt                       :      0.000u      0.000s      0.000w     16 calls

--------------------------------------------------------------------------------------
Total PK formation time             :      0.050u      0.000s      0.035w      1 calls
HF: Form core H                     :      0.017u      0.000s      0.001w      1 calls
HF: Form S/X                        :      0.000u      0.000s      0.000w      1 calls
HF: Guess                           :      0.167u      0.000s      0.108w      1 calls
| SAD Guess                         :      0.150u      0.000s      0.096w      1 calls
HF: Form G                          :      0.000u      0.000s      0.000w      6 calls
| JK: D                             :      0.000u      0.000s      0.000w      6 calls
| JK: USO2AO                        :      0.000u      0.000s      0.000w      6 calls
| JK: JK                            :      0.000u      0.000s      0.000w      6 calls
| | PK computes JK                  :      0.000u      0.000s      0.000w      6 calls
| JK: AO2USO                        :      0.000u      0.000s      0.000w      6 calls
HF: Form F                          :      0.000u      0.000s      0.000w      6 calls
HF: Form D                          :      0.000u      0.000s      0.000w      6 calls
HF: DIIS                            :      0.000u      0.000s      0.003w      5 calls
| DIISManager::add_entry            :      0.000u      0.000s      0.000w      5 calls
| DIISManager::extrapolate          :      0.000u      0.000s      0.000w      5 calls
| | bMatrix setup                   :      0.000u      0.000s      0.000w      5 calls
| | bMatrix pseudoinverse           :      0.000u      0.000s      0.000w      5 calls
| | New vector                      :      0.000u      0.000s      0.000w      5 calls
HF: Form C                          :      0.000u      0.000s      0.000w      5 calls
CIWave: CIvect write                :      0.000u      0.000s      0.000w     14 calls
CIWave: CIvect read                 :      0.000u      0.000s      0.000w     39 calls
CIWave: s2                          :      0.000u      0.000s      0.000w      4 calls
CIWave: s1                          :      0.000u      0.000s      0.000w      8 calls
CIWave: s3                          :      0.000u      0.000s      0.000w      8 calls
| CIWave: s3_mt                     :      0.000u      0.000s      0.000w     16 calls

**************************************************************************************

Host: node2623.swalot.os

Timers On : Tue Apr 27 14:10:42 2021
Timers Off: Tue Apr 27 15:02:06 2021

Wall Time:     3084.06 seconds

                                                       Time (seconds)
Module                                       User      System        Wall        Calls
Total PK formation time             :      0.517u      0.000s      0.302w      7 calls
HF: Form core H                     :      0.000u      0.000s      0.006w      7 calls
HF: Form S/X                        :      0.000u      0.000s      0.001w      7 calls
HF: Guess                           :      2.483u      0.050s      1.660w      7 calls
SAD Guess                           :      2.333u      0.033s      1.572w      7 calls
HF: Form G                          :      0.000u      0.000s      0.002w     56 calls
JK: D                               :      0.000u      0.000s      0.000w     56 calls
JK: USO2AO                          :      0.000u      0.000s      0.000w     56 calls
JK: JK                              :      0.000u      0.000s      0.001w     56 calls
PK computes JK                      :      0.000u      0.000s      0.001w     56 calls
JK: AO2USO                          :      0.000u      0.000s      0.000w     56 calls
HF: Form F                          :      0.000u      0.000s      0.000w     56 calls
HF: Form D                          :      0.000u      0.000s      0.000w     56 calls
HF: DIIS                            :      0.033u      0.017s      0.025w     49 calls
DIISManager::add_entry              :      0.000u      0.000s      0.003w     49 calls
DIISManager::extrapolate            :      0.017u      0.017s      0.003w     49 calls
bMatrix setup                       :      0.000u      0.000s      0.001w     49 calls
bMatrix pseudoinverse               :      0.000u      0.000s      0.001w     49 calls
New vector                          :      0.017u      0.017s      0.001w     49 calls
HF: Form C                          :      0.000u      0.000s      0.001w     49 calls
FNOCC: Initializing Integrals       :      0.000u      0.000s      0.000w      4 calls
FNOCC: Two Elec Int Trans.          :      0.050u      0.000s      0.015w      4 calls
CIWave: CIvect write                :      0.000u      0.000s      0.000w     42 calls
CIWave: CIvect read                 :      0.000u      0.000s      0.000w    117 calls
CIWave: s2                          :      0.000u      0.000s      0.000w     34 calls
CIWave: s3                          :      0.000u      0.000s      0.001w     58 calls
CIWave: s3_mt                       :      0.000u      0.000s      0.001w    282 calls
CIWave: s1                          :      0.000u      0.000s      0.000w     36 calls

--------------------------------------------------------------------------------------
Total PK formation time             :      0.517u      0.000s      0.302w      7 calls
HF: Form core H                     :      0.000u      0.000s      0.006w      7 calls
HF: Form S/X                        :      0.000u      0.000s      0.001w      7 calls
HF: Guess                           :      2.483u      0.050s      1.660w      7 calls
| SAD Guess                         :      2.333u      0.033s      1.572w      7 calls
HF: Form G                          :      0.000u      0.000s      0.002w     56 calls
| JK: D                             :      0.000u      0.000s      0.000w     56 calls
| JK: USO2AO                        :      0.000u      0.000s      0.000w     56 calls
| JK: JK                            :      0.000u      0.000s      0.001w     56 calls
| | PK computes JK                  :      0.000u      0.000s      0.001w     56 calls
| JK: AO2USO                        :      0.000u      0.000s      0.000w     56 calls
HF: Form F                          :      0.000u      0.000s      0.000w     56 calls
HF: Form D                          :      0.000u      0.000s      0.000w     56 calls
HF: DIIS                            :      0.033u      0.017s      0.025w     49 calls
| DIISManager::add_entry            :      0.000u      0.000s      0.003w     49 calls
| DIISManager::extrapolate          :      0.017u      0.017s      0.003w     49 calls
| | bMatrix setup                   :      0.000u      0.000s      0.001w     49 calls
| | bMatrix pseudoinverse           :      0.000u      0.000s      0.001w     49 calls
| | New vector                      :      0.017u      0.017s      0.001w     49 calls
HF: Form C                          :      0.000u      0.000s      0.001w     49 calls
FNOCC: Initializing Integrals       :      0.000u      0.000s      0.000w      4 calls
FNOCC: Two Elec Int Trans.          :      0.050u      0.000s      0.015w      4 calls
CIWave: CIvect write                :      0.000u      0.000s      0.000w     42 calls
CIWave: CIvect read                 :      0.000u      0.000s      0.000w    117 calls
CIWave: s2                          :      0.000u      0.000s      0.000w     34 calls
CIWave: s3                          :      0.000u      0.000s      0.001w     58 calls
| CIWave: s3_mt                     :      0.000u      0.000s      0.001w    282 calls
CIWave: s1                          :      0.000u      0.000s      0.000w     36 calls

**************************************************************************************

Host: node2689.swalot.os

Timers On : Tue Apr 27 18:15:09 2021
Timers Off: Tue Apr 27 18:15:10 2021

Wall Time:        0.79 seconds

                                                       Time (seconds)
Module                                       User      System        Wall        Calls

--------------------------------------------------------------------------------------

**************************************************************************************
