
Host: node2610.swalot.os

Timers On : Wed Mar 10 12:56:50 2021
Timers Off: Wed Mar 10 16:33:44 2021

Wall Time:    13013.43 seconds

                                                       Time (seconds)
Module                                       User      System        Wall        Calls
DFH: sparsity prep                  :      0.033u      0.000s      0.021w      1 calls
DFH: initialize()                   :      0.100u      0.100s      0.142w      1 calls
DFH: AO Construction                :      0.000u      0.000s      0.001w      1 calls
DFH: AO-Met. Contraction            :      0.000u      0.000s      0.000w      1 calls
HF: Form core H                     :      0.000u      0.000s      0.001w      1 calls
HF: Form S/X                        :      0.000u      0.000s      0.000w      1 calls
HF: Guess                           :      0.367u      0.000s      0.218w      1 calls
SAD Guess                           :      0.350u      0.000s      0.205w      1 calls
HF: Form G                          :      0.000u      0.000s      0.001w      7 calls
JK: D                               :      0.000u      0.000s      0.000w      7 calls
JK: USO2AO                          :      0.000u      0.000s      0.000w      7 calls
JK: JK                              :      0.000u      0.000s      0.000w      7 calls
DFH: compute_JK()                   :      0.000u      0.000s      0.000w      7 calls
DFH: Grabbing AOs                   :      0.000u      0.000s      0.000w      7 calls
DFH: compute_J                      :      0.000u      0.000s      0.000w      7 calls
DFH: compute_K                      :      0.000u      0.000s      0.000w      7 calls
JK: AO2USO                          :      0.000u      0.000s      0.000w      7 calls
HF: Form F                          :      0.000u      0.000s      0.000w      7 calls
HF: Form D                          :      0.000u      0.000s      0.000w      7 calls
HF: DIIS                            :      0.017u      0.000s      0.003w      6 calls
DIISManager::add_entry              :      0.000u      0.000s      0.001w      6 calls
DIISManager::extrapolate            :      0.017u      0.000s      0.000w      6 calls
bMatrix setup                       :      0.017u      0.000s      0.000w      6 calls
bMatrix pseudoinverse               :      0.000u      0.000s      0.000w      6 calls
New vector                          :      0.000u      0.000s      0.000w      6 calls
HF: Form C                          :      0.000u      0.000s      0.000w      6 calls

--------------------------------------------------------------------------------------
DFH: sparsity prep                  :      0.033u      0.000s      0.021w      1 calls
DFH: initialize()                   :      0.100u      0.100s      0.142w      1 calls
| DFH: AO Construction              :      0.000u      0.000s      0.001w      1 calls
| DFH: AO-Met. Contraction          :      0.000u      0.000s      0.000w      1 calls
HF: Form core H                     :      0.000u      0.000s      0.001w      1 calls
HF: Form S/X                        :      0.000u      0.000s      0.000w      1 calls
HF: Guess                           :      0.367u      0.000s      0.218w      1 calls
| SAD Guess                         :      0.350u      0.000s      0.205w      1 calls
HF: Form G                          :      0.000u      0.000s      0.001w      7 calls
| JK: D                             :      0.000u      0.000s      0.000w      7 calls
| JK: USO2AO                        :      0.000u      0.000s      0.000w      7 calls
| JK: JK                            :      0.000u      0.000s      0.000w      7 calls
| | DFH: compute_JK()               :      0.000u      0.000s      0.000w      7 calls
| | | DFH: Grabbing AOs             :      0.000u      0.000s      0.000w      7 calls
| | | DFH: compute_J                :      0.000u      0.000s      0.000w      7 calls
| | | DFH: compute_K                :      0.000u      0.000s      0.000w      7 calls
| JK: AO2USO                        :      0.000u      0.000s      0.000w      7 calls
HF: Form F                          :      0.000u      0.000s      0.000w      7 calls
HF: Form D                          :      0.000u      0.000s      0.000w      7 calls
HF: DIIS                            :      0.017u      0.000s      0.003w      6 calls
| DIISManager::add_entry            :      0.000u      0.000s      0.001w      6 calls
| DIISManager::extrapolate          :      0.017u      0.000s      0.000w      6 calls
| | bMatrix setup                   :      0.017u      0.000s      0.000w      6 calls
| | bMatrix pseudoinverse           :      0.000u      0.000s      0.000w      6 calls
| | New vector                      :      0.000u      0.000s      0.000w      6 calls
HF: Form C                          :      0.000u      0.000s      0.000w      6 calls

**************************************************************************************

Host: node2624.swalot.os

Timers On : Thu Mar 11 11:45:23 2021
Timers Off: Thu Mar 11 17:01:58 2021

Wall Time:    18995.73 seconds

                                                       Time (seconds)
Module                                       User      System        Wall        Calls
DFH: sparsity prep                  :      0.950u      0.000s      0.579w     21 calls
DFH: initialize()                   :      0.083u      0.000s      0.057w      1 calls
DFH: AO Construction                :      0.000u      0.000s      0.001w      1 calls
DFH: AO-Met. Contraction            :      0.000u      0.000s      0.000w      1 calls
HF: Form core H                     :      0.000u      0.000s      0.001w      1 calls
HF: Form S/X                        :      0.000u      0.000s      0.000w      1 calls
HF: Guess                           :      0.200u      0.000s      0.115w      1 calls
SAD Guess                           :      0.167u      0.000s      0.102w      1 calls
HF: Form G                          :      0.000u      0.000s      0.002w      9 calls
JK: D                               :      0.000u      0.000s      0.000w      9 calls
JK: USO2AO                          :      0.000u      0.000s      0.000w      9 calls
JK: JK                              :      0.000u      0.000s      0.001w      9 calls
DFH: compute_JK()                   :      0.000u      0.000s      0.001w      9 calls
DFH: Grabbing AOs                   :      0.000u      0.000s      0.000w      9 calls
DFH: compute_J                      :      0.000u      0.000s      0.000w      9 calls
DFH: compute_K                      :      0.000u      0.000s      0.000w      9 calls
JK: AO2USO                          :      0.000u      0.000s      0.000w      9 calls
HF: Form F                          :      0.000u      0.000s      0.000w      9 calls
HF: Form D                          :      0.000u      0.000s      0.000w      9 calls
HF: DIIS                            :      0.000u      0.000s      0.004w      8 calls
DIISManager::add_entry              :      0.000u      0.000s      0.001w      8 calls
DIISManager::extrapolate            :      0.000u      0.000s      0.001w      8 calls
bMatrix setup                       :      0.000u      0.000s      0.000w      8 calls
bMatrix pseudoinverse               :      0.000u      0.000s      0.000w      8 calls
New vector                          :      0.000u      0.000s      0.000w      8 calls
HF: Form C                          :      0.017u      0.000s      0.001w      8 calls

--------------------------------------------------------------------------------------
DFH: sparsity prep                  :      0.950u      0.000s      0.579w     21 calls
DFH: initialize()                   :      0.083u      0.000s      0.057w      1 calls
| DFH: AO Construction              :      0.000u      0.000s      0.001w      1 calls
| DFH: AO-Met. Contraction          :      0.000u      0.000s      0.000w      1 calls
HF: Form core H                     :      0.000u      0.000s      0.001w      1 calls
HF: Form S/X                        :      0.000u      0.000s      0.000w      1 calls
HF: Guess                           :      0.200u      0.000s      0.115w      1 calls
| SAD Guess                         :      0.167u      0.000s      0.102w      1 calls
HF: Form G                          :      0.000u      0.000s      0.002w      9 calls
| JK: D                             :      0.000u      0.000s      0.000w      9 calls
| JK: USO2AO                        :      0.000u      0.000s      0.000w      9 calls
| JK: JK                            :      0.000u      0.000s      0.001w      9 calls
| | DFH: compute_JK()               :      0.000u      0.000s      0.001w      9 calls
| | | DFH: Grabbing AOs             :      0.000u      0.000s      0.000w      9 calls
| | | DFH: compute_J                :      0.000u      0.000s      0.000w      9 calls
| | | DFH: compute_K                :      0.000u      0.000s      0.000w      9 calls
| JK: AO2USO                        :      0.000u      0.000s      0.000w      9 calls
HF: Form F                          :      0.000u      0.000s      0.000w      9 calls
HF: Form D                          :      0.000u      0.000s      0.000w      9 calls
HF: DIIS                            :      0.000u      0.000s      0.004w      8 calls
| DIISManager::add_entry            :      0.000u      0.000s      0.001w      8 calls
| DIISManager::extrapolate          :      0.000u      0.000s      0.001w      8 calls
| | bMatrix setup                   :      0.000u      0.000s      0.000w      8 calls
| | bMatrix pseudoinverse           :      0.000u      0.000s      0.000w      8 calls
| | New vector                      :      0.000u      0.000s      0.000w      8 calls
HF: Form C                          :      0.017u      0.000s      0.001w      8 calls

**************************************************************************************

Host: node2608.swalot.os

Timers On : Fri Mar 12 14:33:58 2021
Timers Off: Fri Mar 12 14:52:14 2021

Wall Time:     1095.72 seconds

                                                       Time (seconds)
Module                                       User      System        Wall        Calls
DFH: sparsity prep                  :      0.050u      0.000s      0.028w      1 calls
DFH: initialize()                   :      0.117u      0.000s      0.088w      1 calls
DFH: AO Construction                :      0.000u      0.000s      0.004w      1 calls
DFH: AO-Met. Contraction            :      0.000u      0.000s      0.000w      1 calls
HF: Form core H                     :      0.000u      0.000s      0.001w      1 calls
HF: Form S/X                        :      0.000u      0.000s      0.000w      1 calls
HF: Guess                           :      0.383u      0.000s      0.233w      1 calls
SAD Guess                           :      0.367u      0.000s      0.220w      1 calls
HF: Form G                          :      0.000u      0.000s      0.003w      9 calls
JK: D                               :      0.000u      0.000s      0.000w      9 calls
JK: USO2AO                          :      0.000u      0.000s      0.000w      9 calls
JK: JK                              :      0.000u      0.000s      0.002w      9 calls
DFH: compute_JK()                   :      0.000u      0.000s      0.002w      9 calls
DFH: Grabbing AOs                   :      0.000u      0.000s      0.000w      9 calls
DFH: compute_J                      :      0.000u      0.000s      0.001w      9 calls
DFH: compute_K                      :      0.000u      0.000s      0.002w      9 calls
JK: AO2USO                          :      0.000u      0.000s      0.000w      9 calls
HF: Form F                          :      0.000u      0.000s      0.000w      9 calls
HF: Form D                          :      0.000u      0.000s      0.000w      9 calls
HF: DIIS                            :      0.017u      0.000s      0.005w      8 calls
DIISManager::add_entry              :      0.000u      0.000s      0.001w      8 calls
DIISManager::extrapolate            :      0.000u      0.000s      0.001w      8 calls
bMatrix setup                       :      0.000u      0.000s      0.000w      8 calls
bMatrix pseudoinverse               :      0.000u      0.000s      0.000w      8 calls
New vector                          :      0.000u      0.000s      0.000w      8 calls
HF: Form C                          :      0.000u      0.000s      0.001w      8 calls

--------------------------------------------------------------------------------------
DFH: sparsity prep                  :      0.050u      0.000s      0.028w      1 calls
DFH: initialize()                   :      0.117u      0.000s      0.088w      1 calls
| DFH: AO Construction              :      0.000u      0.000s      0.004w      1 calls
| DFH: AO-Met. Contraction          :      0.000u      0.000s      0.000w      1 calls
HF: Form core H                     :      0.000u      0.000s      0.001w      1 calls
HF: Form S/X                        :      0.000u      0.000s      0.000w      1 calls
HF: Guess                           :      0.383u      0.000s      0.233w      1 calls
| SAD Guess                         :      0.367u      0.000s      0.220w      1 calls
HF: Form G                          :      0.000u      0.000s      0.003w      9 calls
| JK: D                             :      0.000u      0.000s      0.000w      9 calls
| JK: USO2AO                        :      0.000u      0.000s      0.000w      9 calls
| JK: JK                            :      0.000u      0.000s      0.002w      9 calls
| | DFH: compute_JK()               :      0.000u      0.000s      0.002w      9 calls
| | | DFH: Grabbing AOs             :      0.000u      0.000s      0.000w      9 calls
| | | DFH: compute_J                :      0.000u      0.000s      0.001w      9 calls
| | | DFH: compute_K                :      0.000u      0.000s      0.002w      9 calls
| JK: AO2USO                        :      0.000u      0.000s      0.000w      9 calls
HF: Form F                          :      0.000u      0.000s      0.000w      9 calls
HF: Form D                          :      0.000u      0.000s      0.000w      9 calls
HF: DIIS                            :      0.017u      0.000s      0.005w      8 calls
| DIISManager::add_entry            :      0.000u      0.000s      0.001w      8 calls
| DIISManager::extrapolate          :      0.000u      0.000s      0.001w      8 calls
| | bMatrix setup                   :      0.000u      0.000s      0.000w      8 calls
| | bMatrix pseudoinverse           :      0.000u      0.000s      0.000w      8 calls
| | New vector                      :      0.000u      0.000s      0.000w      8 calls
HF: Form C                          :      0.000u      0.000s      0.001w      8 calls

**************************************************************************************

Host: node2608.swalot.os

Timers On : Fri Mar 12 14:57:14 2021
Timers Off: Fri Mar 12 15:03:29 2021

Wall Time:      375.20 seconds

                                                       Time (seconds)
Module                                       User      System        Wall        Calls

--------------------------------------------------------------------------------------

**************************************************************************************

Host: node2608.swalot.os

Timers On : Fri Mar 12 15:06:09 2021
Timers Off: Fri Mar 12 16:18:58 2021

Wall Time:     4368.71 seconds

                                                       Time (seconds)
Module                                       User      System        Wall        Calls

--------------------------------------------------------------------------------------

**************************************************************************************

Host: node2608.swalot.os

Timers On : Fri Mar 12 16:23:11 2021
Timers Off: Fri Mar 12 16:27:19 2021

Wall Time:      247.80 seconds

                                                       Time (seconds)
Module                                       User      System        Wall        Calls

--------------------------------------------------------------------------------------

**************************************************************************************

Host: node2608.swalot.os

Timers On : Fri Mar 12 16:28:07 2021
Timers Off: Fri Mar 12 16:30:10 2021

Wall Time:      122.97 seconds

                                                       Time (seconds)
Module                                       User      System        Wall        Calls

--------------------------------------------------------------------------------------

**************************************************************************************

Host: node2608.swalot.os

Timers On : Fri Mar 12 16:30:34 2021
Timers Off: Fri Mar 12 16:32:00 2021

Wall Time:       85.17 seconds

                                                       Time (seconds)
Module                                       User      System        Wall        Calls

--------------------------------------------------------------------------------------

**************************************************************************************

Host: node2608.swalot.os

Timers On : Fri Mar 12 16:32:16 2021
Timers Off: Fri Mar 12 16:36:37 2021

Wall Time:      260.70 seconds

                                                       Time (seconds)
Module                                       User      System        Wall        Calls

--------------------------------------------------------------------------------------

**************************************************************************************

Host: node3106.skitty.os

Timers On : Sun Mar 14 08:58:03 2021
Timers Off: Sun Mar 14 09:04:10 2021

Wall Time:      366.68 seconds

                                                       Time (seconds)
Module                                       User      System        Wall        Calls

--------------------------------------------------------------------------------------

**************************************************************************************

Host: node2667.swalot.os

Timers On : Wed Mar 17 13:52:12 2021
Timers Off: Wed Mar 17 14:02:21 2021

Wall Time:      609.14 seconds

                                                       Time (seconds)
Module                                       User      System        Wall        Calls

--------------------------------------------------------------------------------------

**************************************************************************************

Host: node2667.swalot.os

Timers On : Wed Mar 17 15:20:57 2021
Timers Off: Wed Mar 17 15:56:04 2021

Wall Time:     2106.55 seconds

                                                       Time (seconds)
Module                                       User      System        Wall        Calls

--------------------------------------------------------------------------------------

**************************************************************************************

Host: node3404.kirlia.os

Timers On : Tue Mar 23 13:37:45 2021
Timers Off: Tue Mar 23 16:18:58 2021

Wall Time:     9673.59 seconds

                                                       Time (seconds)
Module                                       User      System        Wall        Calls

--------------------------------------------------------------------------------------

**************************************************************************************

Host: node2610.swalot.os

Timers On : Wed Mar 24 12:42:32 2021
Timers Off: Wed Mar 24 16:34:58 2021

Wall Time:    13945.64 seconds

                                                       Time (seconds)
Module                                       User      System        Wall        Calls

--------------------------------------------------------------------------------------

**************************************************************************************

Host: node3503.doduo.os

Timers On : Thu Mar 25 11:41:38 2021
Timers Off: Thu Mar 25 13:49:39 2021

Wall Time:     7680.30 seconds

                                                       Time (seconds)
Module                                       User      System        Wall        Calls

--------------------------------------------------------------------------------------

**************************************************************************************

Host: node3503.doduo.os

Timers On : Thu Mar 25 13:51:44 2021
Timers Off: Thu Mar 25 13:51:53 2021

Wall Time:        9.11 seconds

                                                       Time (seconds)
Module                                       User      System        Wall        Calls

--------------------------------------------------------------------------------------

**************************************************************************************

Host: node3503.doduo.os

Timers On : Thu Mar 25 18:11:50 2021
Timers Off: Thu Mar 25 18:44:18 2021

Wall Time:     1947.72 seconds

                                                       Time (seconds)
Module                                       User      System        Wall        Calls

--------------------------------------------------------------------------------------

**************************************************************************************

Host: node3524.doduo.os

Timers On : Fri Mar 26 08:43:58 2021
Timers Off: Fri Mar 26 11:13:10 2021

Wall Time:     8952.35 seconds

                                                       Time (seconds)
Module                                       User      System        Wall        Calls

--------------------------------------------------------------------------------------

**************************************************************************************

Host: node3401.kirlia.os

Timers On : Fri Mar 26 13:53:47 2021
Timers Off: Fri Mar 26 16:56:01 2021

Wall Time:    10933.42 seconds

                                                       Time (seconds)
Module                                       User      System        Wall        Calls

--------------------------------------------------------------------------------------

**************************************************************************************

Host: node2607.swalot.os

Timers On : Sat Mar 27 10:05:24 2021
Timers Off: Sat Mar 27 10:52:07 2021

Wall Time:     2802.94 seconds

                                                       Time (seconds)
Module                                       User      System        Wall        Calls

--------------------------------------------------------------------------------------

**************************************************************************************

Host: node3514.doduo.os

Timers On : Mon Mar 29 14:32:47 2021
Timers Off: Mon Mar 29 15:24:55 2021

Wall Time:     3128.11 seconds

                                                       Time (seconds)
Module                                       User      System        Wall        Calls

--------------------------------------------------------------------------------------

**************************************************************************************

Host: node3596.doduo.os

Timers On : Tue Mar 30 06:14:41 2021
Timers Off: Tue Mar 30 06:18:07 2021

Wall Time:      205.74 seconds

                                                       Time (seconds)
Module                                       User      System        Wall        Calls

--------------------------------------------------------------------------------------

**************************************************************************************

Host: node3143.skitty.os

Timers On : Tue Mar 30 14:42:57 2021
Timers Off: Tue Mar 30 15:18:19 2021

Wall Time:     2122.63 seconds

                                                       Time (seconds)
Module                                       User      System        Wall        Calls
DFH: sparsity prep                  :      0.033u      0.000s      0.029w      2 calls
DFH: initialize()                   :      0.067u      0.000s      0.044w      1 calls
DFH: AO Construction                :      0.000u      0.000s      0.000w      1 calls
DFH: AO-Met. Contraction            :      0.000u      0.000s      0.000w      1 calls
HF: Form core H                     :      0.000u      0.000s      0.001w      1 calls
HF: Form S/X                        :      0.000u      0.000s      0.000w      1 calls
HF: Guess                           :      0.150u      0.000s      0.091w      1 calls
SAD Guess                           :      0.133u      0.000s      0.079w      1 calls
HF: Form G                          :      0.000u      0.000s      0.001w      5 calls
JK: D                               :      0.000u      0.000s      0.000w      5 calls
JK: USO2AO                          :      0.000u      0.000s      0.000w      5 calls
JK: JK                              :      0.000u      0.000s      0.000w      5 calls
DFH: compute_JK()                   :      0.000u      0.000s      0.000w      5 calls
DFH: Grabbing AOs                   :      0.000u      0.000s      0.000w      5 calls
DFH: compute_J                      :      0.000u      0.000s      0.000w      5 calls
DFH: compute_K                      :      0.000u      0.000s      0.000w      5 calls
JK: AO2USO                          :      0.000u      0.000s      0.000w      5 calls
HF: Form F                          :      0.000u      0.000s      0.000w      5 calls
HF: Form D                          :      0.000u      0.000s      0.000w      5 calls
HF: DIIS                            :      0.000u      0.000s      0.002w      4 calls
DIISManager::add_entry              :      0.000u      0.000s      0.000w      4 calls
DIISManager::extrapolate            :      0.000u      0.000s      0.000w      4 calls
bMatrix setup                       :      0.000u      0.000s      0.000w      4 calls
bMatrix pseudoinverse               :      0.000u      0.000s      0.000w      4 calls
New vector                          :      0.000u      0.000s      0.000w      4 calls
HF: Form C                          :      0.000u      0.000s      0.000w      4 calls

--------------------------------------------------------------------------------------
DFH: sparsity prep                  :      0.033u      0.000s      0.029w      2 calls
DFH: initialize()                   :      0.067u      0.000s      0.044w      1 calls
| DFH: AO Construction              :      0.000u      0.000s      0.000w      1 calls
| DFH: AO-Met. Contraction          :      0.000u      0.000s      0.000w      1 calls
HF: Form core H                     :      0.000u      0.000s      0.001w      1 calls
HF: Form S/X                        :      0.000u      0.000s      0.000w      1 calls
HF: Guess                           :      0.150u      0.000s      0.091w      1 calls
| SAD Guess                         :      0.133u      0.000s      0.079w      1 calls
HF: Form G                          :      0.000u      0.000s      0.001w      5 calls
| JK: D                             :      0.000u      0.000s      0.000w      5 calls
| JK: USO2AO                        :      0.000u      0.000s      0.000w      5 calls
| JK: JK                            :      0.000u      0.000s      0.000w      5 calls
| | DFH: compute_JK()               :      0.000u      0.000s      0.000w      5 calls
| | | DFH: Grabbing AOs             :      0.000u      0.000s      0.000w      5 calls
| | | DFH: compute_J                :      0.000u      0.000s      0.000w      5 calls
| | | DFH: compute_K                :      0.000u      0.000s      0.000w      5 calls
| JK: AO2USO                        :      0.000u      0.000s      0.000w      5 calls
HF: Form F                          :      0.000u      0.000s      0.000w      5 calls
HF: Form D                          :      0.000u      0.000s      0.000w      5 calls
HF: DIIS                            :      0.000u      0.000s      0.002w      4 calls
| DIISManager::add_entry            :      0.000u      0.000s      0.000w      4 calls
| DIISManager::extrapolate          :      0.000u      0.000s      0.000w      4 calls
| | bMatrix setup                   :      0.000u      0.000s      0.000w      4 calls
| | bMatrix pseudoinverse           :      0.000u      0.000s      0.000w      4 calls
| | New vector                      :      0.000u      0.000s      0.000w      4 calls
HF: Form C                          :      0.000u      0.000s      0.000w      4 calls

**************************************************************************************

Host: node3143.skitty.os

Timers On : Tue Mar 30 15:18:24 2021
Timers Off: Tue Mar 30 15:23:23 2021

Wall Time:      299.83 seconds

                                                       Time (seconds)
Module                                       User      System        Wall        Calls
DFH: sparsity prep                  :      0.183u      0.000s      0.112w      7 calls
DFH: initialize()                   :      0.467u      0.000s      0.265w      6 calls
DFH: AO Construction                :      0.033u      0.000s      0.003w      6 calls
DFH: AO-Met. Contraction            :      0.000u      0.000s      0.000w      6 calls
HF: Form core H                     :      0.000u      0.000s      0.005w      6 calls
HF: Form S/X                        :      0.000u      0.000s      0.001w      6 calls
HF: Guess                           :      0.600u      0.000s      0.377w      6 calls
SAD Guess                           :      0.533u      0.000s      0.330w      4 calls
HF: Form G                          :      0.017u      0.017s      0.008w     36 calls
JK: D                               :      0.000u      0.000s      0.000w     36 calls
JK: USO2AO                          :      0.000u      0.000s      0.001w     36 calls
JK: JK                              :      0.017u      0.000s      0.004w     36 calls
DFH: compute_JK()                   :      0.017u      0.000s      0.004w     36 calls
DFH: Grabbing AOs                   :      0.000u      0.000s      0.000w     36 calls
DFH: compute_J                      :      0.000u      0.000s      0.001w     36 calls
DFH: compute_K                      :      0.000u      0.000s      0.001w     36 calls
JK: AO2USO                          :      0.000u      0.000s      0.001w     36 calls
HF: Form F                          :      0.000u      0.000s      0.002w     36 calls
HF: Form D                          :      0.000u      0.000s      0.000w     36 calls
HF: DIIS                            :      0.017u      0.000s      0.022w     32 calls
DIISManager::add_entry              :      0.000u      0.000s      0.003w     32 calls
DIISManager::extrapolate            :      0.000u      0.000s      0.003w     32 calls
bMatrix setup                       :      0.000u      0.000s      0.001w     32 calls
bMatrix pseudoinverse               :      0.000u      0.000s      0.001w     32 calls
New vector                          :      0.000u      0.000s      0.001w     32 calls
HF: Form C                          :      0.000u      0.000s      0.002w     32 calls

--------------------------------------------------------------------------------------
DFH: sparsity prep                  :      0.183u      0.000s      0.112w      7 calls
DFH: initialize()                   :      0.467u      0.000s      0.265w      6 calls
| DFH: AO Construction              :      0.033u      0.000s      0.003w      6 calls
| DFH: AO-Met. Contraction          :      0.000u      0.000s      0.000w      6 calls
HF: Form core H                     :      0.000u      0.000s      0.005w      6 calls
HF: Form S/X                        :      0.000u      0.000s      0.001w      6 calls
HF: Guess                           :      0.600u      0.000s      0.377w      6 calls
| SAD Guess                         :      0.533u      0.000s      0.330w      4 calls
HF: Form G                          :      0.017u      0.017s      0.008w     36 calls
| JK: D                             :      0.000u      0.000s      0.000w     36 calls
| JK: USO2AO                        :      0.000u      0.000s      0.001w     36 calls
| JK: JK                            :      0.017u      0.000s      0.004w     36 calls
| | DFH: compute_JK()               :      0.017u      0.000s      0.004w     36 calls
| | | DFH: Grabbing AOs             :      0.000u      0.000s      0.000w     36 calls
| | | DFH: compute_J                :      0.000u      0.000s      0.001w     36 calls
| | | DFH: compute_K                :      0.000u      0.000s      0.001w     36 calls
| JK: AO2USO                        :      0.000u      0.000s      0.001w     36 calls
HF: Form F                          :      0.000u      0.000s      0.002w     36 calls
HF: Form D                          :      0.000u      0.000s      0.000w     36 calls
HF: DIIS                            :      0.017u      0.000s      0.022w     32 calls
| DIISManager::add_entry            :      0.000u      0.000s      0.003w     32 calls
| DIISManager::extrapolate          :      0.000u      0.000s      0.003w     32 calls
| | bMatrix setup                   :      0.000u      0.000s      0.001w     32 calls
| | bMatrix pseudoinverse           :      0.000u      0.000s      0.001w     32 calls
| | New vector                      :      0.000u      0.000s      0.001w     32 calls
HF: Form C                          :      0.000u      0.000s      0.002w     32 calls

**************************************************************************************

Host: node3415.kirlia.os

Timers On : Wed Mar 31 06:24:14 2021
Timers Off: Wed Mar 31 06:38:11 2021

Wall Time:      836.95 seconds

                                                       Time (seconds)
Module                                       User      System        Wall        Calls
DFH: sparsity prep                  :      0.050u      0.000s      0.031w      2 calls
DFH: initialize()                   :      0.083u      0.017s      0.127w      1 calls
DFH: AO Construction                :      0.000u      0.000s      0.001w      1 calls
DFH: AO-Met. Contraction            :      0.000u      0.000s      0.000w      1 calls
HF: Form core H                     :      0.000u      0.000s      0.001w      1 calls
HF: Form S/X                        :      0.000u      0.000s      0.000w      1 calls
HF: Guess                           :      0.150u      0.000s      0.085w      1 calls
SAD Guess                           :      0.133u      0.000s      0.075w      1 calls
HF: Form G                          :      0.000u      0.000s      0.002w     11 calls
JK: D                               :      0.000u      0.000s      0.000w     11 calls
JK: USO2AO                          :      0.000u      0.000s      0.000w     11 calls
JK: JK                              :      0.000u      0.000s      0.001w     11 calls
DFH: compute_JK()                   :      0.000u      0.000s      0.001w     11 calls
DFH: Grabbing AOs                   :      0.000u      0.000s      0.000w     11 calls
DFH: compute_J                      :      0.000u      0.000s      0.000w     11 calls
DFH: compute_K                      :      0.000u      0.000s      0.000w     11 calls
JK: AO2USO                          :      0.000u      0.000s      0.000w     11 calls
HF: Form F                          :      0.000u      0.000s      0.000w     11 calls
HF: Form D                          :      0.000u      0.000s      0.000w     11 calls
HF: DIIS                            :      0.033u      0.000s      0.006w     10 calls
DIISManager::add_entry              :      0.000u      0.000s      0.001w     10 calls
DIISManager::extrapolate            :      0.017u      0.000s      0.001w     10 calls
bMatrix setup                       :      0.000u      0.000s      0.000w     10 calls
bMatrix pseudoinverse               :      0.000u      0.000s      0.000w     10 calls
New vector                          :      0.000u      0.000s      0.000w     10 calls
HF: Form C                          :      0.000u      0.000s      0.001w     10 calls

--------------------------------------------------------------------------------------
DFH: sparsity prep                  :      0.050u      0.000s      0.031w      2 calls
DFH: initialize()                   :      0.083u      0.017s      0.127w      1 calls
| DFH: AO Construction              :      0.000u      0.000s      0.001w      1 calls
| DFH: AO-Met. Contraction          :      0.000u      0.000s      0.000w      1 calls
HF: Form core H                     :      0.000u      0.000s      0.001w      1 calls
HF: Form S/X                        :      0.000u      0.000s      0.000w      1 calls
HF: Guess                           :      0.150u      0.000s      0.085w      1 calls
| SAD Guess                         :      0.133u      0.000s      0.075w      1 calls
HF: Form G                          :      0.000u      0.000s      0.002w     11 calls
| JK: D                             :      0.000u      0.000s      0.000w     11 calls
| JK: USO2AO                        :      0.000u      0.000s      0.000w     11 calls
| JK: JK                            :      0.000u      0.000s      0.001w     11 calls
| | DFH: compute_JK()               :      0.000u      0.000s      0.001w     11 calls
| | | DFH: Grabbing AOs             :      0.000u      0.000s      0.000w     11 calls
| | | DFH: compute_J                :      0.000u      0.000s      0.000w     11 calls
| | | DFH: compute_K                :      0.000u      0.000s      0.000w     11 calls
| JK: AO2USO                        :      0.000u      0.000s      0.000w     11 calls
HF: Form F                          :      0.000u      0.000s      0.000w     11 calls
HF: Form D                          :      0.000u      0.000s      0.000w     11 calls
HF: DIIS                            :      0.033u      0.000s      0.006w     10 calls
| DIISManager::add_entry            :      0.000u      0.000s      0.001w     10 calls
| DIISManager::extrapolate          :      0.017u      0.000s      0.001w     10 calls
| | bMatrix setup                   :      0.000u      0.000s      0.000w     10 calls
| | bMatrix pseudoinverse           :      0.000u      0.000s      0.000w     10 calls
| | New vector                      :      0.000u      0.000s      0.000w     10 calls
HF: Form C                          :      0.000u      0.000s      0.001w     10 calls

**************************************************************************************

Host: node3415.kirlia.os

Timers On : Wed Mar 31 06:38:14 2021
Timers Off: Wed Mar 31 06:43:06 2021

Wall Time:      291.91 seconds

                                                       Time (seconds)
Module                                       User      System        Wall        Calls
DFH: sparsity prep                  :      0.050u      0.017s      0.045w      3 calls
DFH: initialize()                   :      0.200u      0.000s      0.130w      3 calls
DFH: AO Construction                :      0.000u      0.000s      0.005w      3 calls
DFH: AO-Met. Contraction            :      0.000u      0.000s      0.001w      3 calls
HF: Form core H                     :      0.000u      0.000s      0.003w      3 calls
HF: Form S/X                        :      0.000u      0.000s      0.000w      3 calls
HF: Guess                           :      0.567u      0.000s      0.340w      3 calls
SAD Guess                           :      0.500u      0.000s      0.308w      3 calls
HF: Form G                          :      0.000u      0.000s      0.008w     33 calls
JK: D                               :      0.000u      0.000s      0.000w     33 calls
JK: USO2AO                          :      0.000u      0.000s      0.001w     33 calls
JK: JK                              :      0.000u      0.000s      0.006w     33 calls
DFH: compute_JK()                   :      0.000u      0.000s      0.006w     33 calls
DFH: Grabbing AOs                   :      0.000u      0.000s      0.000w     33 calls
DFH: compute_J                      :      0.000u      0.000s      0.002w     33 calls
DFH: compute_K                      :      0.000u      0.000s      0.003w     33 calls
JK: AO2USO                          :      0.000u      0.000s      0.000w     33 calls
HF: Form F                          :      0.000u      0.000s      0.000w     33 calls
HF: Form D                          :      0.000u      0.000s      0.000w     33 calls
HF: DIIS                            :      0.017u      0.000s      0.018w     30 calls
DIISManager::add_entry              :      0.000u      0.000s      0.002w     30 calls
DIISManager::extrapolate            :      0.000u      0.000s      0.003w     30 calls
bMatrix setup                       :      0.000u      0.000s      0.001w     30 calls
bMatrix pseudoinverse               :      0.000u      0.000s      0.001w     30 calls
New vector                          :      0.000u      0.000s      0.001w     30 calls
HF: Form C                          :      0.033u      0.000s      0.003w     30 calls

--------------------------------------------------------------------------------------
DFH: sparsity prep                  :      0.050u      0.017s      0.045w      3 calls
DFH: initialize()                   :      0.200u      0.000s      0.130w      3 calls
| DFH: AO Construction              :      0.000u      0.000s      0.005w      3 calls
| DFH: AO-Met. Contraction          :      0.000u      0.000s      0.001w      3 calls
HF: Form core H                     :      0.000u      0.000s      0.003w      3 calls
HF: Form S/X                        :      0.000u      0.000s      0.000w      3 calls
HF: Guess                           :      0.567u      0.000s      0.340w      3 calls
| SAD Guess                         :      0.500u      0.000s      0.308w      3 calls
HF: Form G                          :      0.000u      0.000s      0.008w     33 calls
| JK: D                             :      0.000u      0.000s      0.000w     33 calls
| JK: USO2AO                        :      0.000u      0.000s      0.001w     33 calls
| JK: JK                            :      0.000u      0.000s      0.006w     33 calls
| | DFH: compute_JK()               :      0.000u      0.000s      0.006w     33 calls
| | | DFH: Grabbing AOs             :      0.000u      0.000s      0.000w     33 calls
| | | DFH: compute_J                :      0.000u      0.000s      0.002w     33 calls
| | | DFH: compute_K                :      0.000u      0.000s      0.003w     33 calls
| JK: AO2USO                        :      0.000u      0.000s      0.000w     33 calls
HF: Form F                          :      0.000u      0.000s      0.000w     33 calls
HF: Form D                          :      0.000u      0.000s      0.000w     33 calls
HF: DIIS                            :      0.017u      0.000s      0.018w     30 calls
| DIISManager::add_entry            :      0.000u      0.000s      0.002w     30 calls
| DIISManager::extrapolate          :      0.000u      0.000s      0.003w     30 calls
| | bMatrix setup                   :      0.000u      0.000s      0.001w     30 calls
| | bMatrix pseudoinverse           :      0.000u      0.000s      0.001w     30 calls
| | New vector                      :      0.000u      0.000s      0.001w     30 calls
HF: Form C                          :      0.033u      0.000s      0.003w     30 calls

**************************************************************************************

Host: node3415.kirlia.os

Timers On : Wed Mar 31 06:39:40 2021
Timers Off: Wed Mar 31 06:43:06 2021

Wall Time:      205.99 seconds

                                                       Time (seconds)
Module                                       User      System        Wall        Calls

--------------------------------------------------------------------------------------

**************************************************************************************

Host: node3415.kirlia.os

Timers On : Wed Mar 31 06:43:39 2021
Timers Off: Wed Mar 31 06:56:55 2021

Wall Time:      795.70 seconds

                                                       Time (seconds)
Module                                       User      System        Wall        Calls
DFH: sparsity prep                  :      0.083u      0.000s      0.045w      3 calls
DFH: initialize()                   :      0.217u      0.000s      0.130w      3 calls
DFH: AO Construction                :      0.000u      0.000s      0.005w      3 calls
DFH: AO-Met. Contraction            :      0.000u      0.000s      0.001w      3 calls
HF: Form core H                     :      0.000u      0.000s      0.002w      3 calls
HF: Form S/X                        :      0.000u      0.000s      0.000w      3 calls
HF: Guess                           :      0.550u      0.017s      0.340w      3 calls
SAD Guess                           :      0.500u      0.017s      0.308w      3 calls
HF: Form G                          :      0.000u      0.000s      0.006w     26 calls
JK: D                               :      0.000u      0.000s      0.000w     26 calls
JK: USO2AO                          :      0.000u      0.000s      0.001w     26 calls
JK: JK                              :      0.000u      0.000s      0.004w     26 calls
DFH: compute_JK()                   :      0.000u      0.000s      0.004w     26 calls
DFH: Grabbing AOs                   :      0.000u      0.000s      0.000w     26 calls
DFH: compute_J                      :      0.000u      0.000s      0.001w     26 calls
DFH: compute_K                      :      0.000u      0.000s      0.002w     26 calls
JK: AO2USO                          :      0.000u      0.000s      0.000w     26 calls
HF: Form F                          :      0.000u      0.000s      0.001w     26 calls
HF: Form D                          :      0.000u      0.000s      0.000w     26 calls
HF: DIIS                            :      0.050u      0.000s      0.014w     23 calls
DIISManager::add_entry              :      0.000u      0.000s      0.002w     23 calls
DIISManager::extrapolate            :      0.000u      0.000s      0.002w     23 calls
bMatrix setup                       :      0.000u      0.000s      0.001w     23 calls
bMatrix pseudoinverse               :      0.000u      0.000s      0.001w     23 calls
New vector                          :      0.000u      0.000s      0.000w     23 calls
HF: Form C                          :      0.000u      0.000s      0.002w     23 calls

--------------------------------------------------------------------------------------
DFH: sparsity prep                  :      0.083u      0.000s      0.045w      3 calls
DFH: initialize()                   :      0.217u      0.000s      0.130w      3 calls
| DFH: AO Construction              :      0.000u      0.000s      0.005w      3 calls
| DFH: AO-Met. Contraction          :      0.000u      0.000s      0.001w      3 calls
HF: Form core H                     :      0.000u      0.000s      0.002w      3 calls
HF: Form S/X                        :      0.000u      0.000s      0.000w      3 calls
HF: Guess                           :      0.550u      0.017s      0.340w      3 calls
| SAD Guess                         :      0.500u      0.017s      0.308w      3 calls
HF: Form G                          :      0.000u      0.000s      0.006w     26 calls
| JK: D                             :      0.000u      0.000s      0.000w     26 calls
| JK: USO2AO                        :      0.000u      0.000s      0.001w     26 calls
| JK: JK                            :      0.000u      0.000s      0.004w     26 calls
| | DFH: compute_JK()               :      0.000u      0.000s      0.004w     26 calls
| | | DFH: Grabbing AOs             :      0.000u      0.000s      0.000w     26 calls
| | | DFH: compute_J                :      0.000u      0.000s      0.001w     26 calls
| | | DFH: compute_K                :      0.000u      0.000s      0.002w     26 calls
| JK: AO2USO                        :      0.000u      0.000s      0.000w     26 calls
HF: Form F                          :      0.000u      0.000s      0.001w     26 calls
HF: Form D                          :      0.000u      0.000s      0.000w     26 calls
HF: DIIS                            :      0.050u      0.000s      0.014w     23 calls
| DIISManager::add_entry            :      0.000u      0.000s      0.002w     23 calls
| DIISManager::extrapolate          :      0.000u      0.000s      0.002w     23 calls
| | bMatrix setup                   :      0.000u      0.000s      0.001w     23 calls
| | bMatrix pseudoinverse           :      0.000u      0.000s      0.001w     23 calls
| | New vector                      :      0.000u      0.000s      0.000w     23 calls
HF: Form C                          :      0.000u      0.000s      0.002w     23 calls

**************************************************************************************

Host: gligar04.gastly.os

Timers On : Wed Mar 31 11:20:45 2021
Timers Off: Wed Mar 31 11:28:50 2021

Wall Time:      485.27 seconds

                                                       Time (seconds)
Module                                       User      System        Wall        Calls

--------------------------------------------------------------------------------------

**************************************************************************************

Host: node3415.kirlia.os

Timers On : Wed Mar 31 11:33:52 2021
Timers Off: Wed Mar 31 11:54:42 2021

Wall Time:     1249.15 seconds

                                                       Time (seconds)
Module                                       User      System        Wall        Calls
DFH: sparsity prep                  :      0.050u      0.000s      0.029w      2 calls
DFH: initialize()                   :      0.083u      0.083s      0.105w      1 calls
DFH: AO Construction                :      0.000u      0.000s      0.001w      1 calls
DFH: AO-Met. Contraction            :      0.000u      0.000s      0.000w      1 calls
HF: Form core H                     :      0.000u      0.017s      0.001w      1 calls
HF: Form S/X                        :      0.000u      0.000s      0.000w      1 calls
HF: Guess                           :      0.267u      0.000s      0.162w      1 calls
SAD Guess                           :      0.250u      0.000s      0.151w      1 calls
HF: Form G                          :      0.000u      0.000s      0.001w      7 calls
JK: D                               :      0.000u      0.000s      0.000w      7 calls
JK: USO2AO                          :      0.000u      0.000s      0.000w      7 calls
JK: JK                              :      0.000u      0.000s      0.001w      7 calls
DFH: compute_JK()                   :      0.000u      0.000s      0.001w      7 calls
DFH: Grabbing AOs                   :      0.000u      0.000s      0.000w      7 calls
DFH: compute_J                      :      0.000u      0.000s      0.000w      7 calls
DFH: compute_K                      :      0.000u      0.000s      0.000w      7 calls
JK: AO2USO                          :      0.000u      0.000s      0.000w      7 calls
HF: Form F                          :      0.000u      0.000s      0.000w      7 calls
HF: Form D                          :      0.000u      0.000s      0.000w      7 calls
HF: DIIS                            :      0.000u      0.000s      0.003w      6 calls
DIISManager::add_entry              :      0.000u      0.000s      0.000w      6 calls
DIISManager::extrapolate            :      0.000u      0.000s      0.000w      6 calls
bMatrix setup                       :      0.000u      0.000s      0.000w      6 calls
bMatrix pseudoinverse               :      0.000u      0.000s      0.000w      6 calls
New vector                          :      0.000u      0.000s      0.000w      6 calls
HF: Form C                          :      0.017u      0.000s      0.000w      6 calls

--------------------------------------------------------------------------------------
DFH: sparsity prep                  :      0.050u      0.000s      0.029w      2 calls
DFH: initialize()                   :      0.083u      0.083s      0.105w      1 calls
| DFH: AO Construction              :      0.000u      0.000s      0.001w      1 calls
| DFH: AO-Met. Contraction          :      0.000u      0.000s      0.000w      1 calls
HF: Form core H                     :      0.000u      0.017s      0.001w      1 calls
HF: Form S/X                        :      0.000u      0.000s      0.000w      1 calls
HF: Guess                           :      0.267u      0.000s      0.162w      1 calls
| SAD Guess                         :      0.250u      0.000s      0.151w      1 calls
HF: Form G                          :      0.000u      0.000s      0.001w      7 calls
| JK: D                             :      0.000u      0.000s      0.000w      7 calls
| JK: USO2AO                        :      0.000u      0.000s      0.000w      7 calls
| JK: JK                            :      0.000u      0.000s      0.001w      7 calls
| | DFH: compute_JK()               :      0.000u      0.000s      0.001w      7 calls
| | | DFH: Grabbing AOs             :      0.000u      0.000s      0.000w      7 calls
| | | DFH: compute_J                :      0.000u      0.000s      0.000w      7 calls
| | | DFH: compute_K                :      0.000u      0.000s      0.000w      7 calls
| JK: AO2USO                        :      0.000u      0.000s      0.000w      7 calls
HF: Form F                          :      0.000u      0.000s      0.000w      7 calls
HF: Form D                          :      0.000u      0.000s      0.000w      7 calls
HF: DIIS                            :      0.000u      0.000s      0.003w      6 calls
| DIISManager::add_entry            :      0.000u      0.000s      0.000w      6 calls
| DIISManager::extrapolate          :      0.000u      0.000s      0.000w      6 calls
| | bMatrix setup                   :      0.000u      0.000s      0.000w      6 calls
| | bMatrix pseudoinverse           :      0.000u      0.000s      0.000w      6 calls
| | New vector                      :      0.000u      0.000s      0.000w      6 calls
HF: Form C                          :      0.017u      0.000s      0.000w      6 calls

**************************************************************************************

Host: node3415.kirlia.os

Timers On : Wed Mar 31 11:54:46 2021
Timers Off: Wed Mar 31 12:35:22 2021

Wall Time:     2435.74 seconds

                                                       Time (seconds)
Module                                       User      System        Wall        Calls
DFH: sparsity prep                  :      0.133u      0.000s      0.072w      5 calls
DFH: initialize()                   :      0.400u      0.017s      0.231w      5 calls
DFH: AO Construction                :      0.067u      0.000s      0.006w      5 calls
DFH: AO-Met. Contraction            :      0.000u      0.000s      0.001w      5 calls
HF: Form core H                     :      0.000u      0.000s      0.004w      5 calls
HF: Form S/X                        :      0.000u      0.000s      0.000w      5 calls
HF: Guess                           :      1.167u      0.033s      0.737w      5 calls
SAD Guess                           :      1.100u      0.017s      0.682w      5 calls
HF: Form G                          :      0.000u      0.000s      0.005w     34 calls
JK: D                               :      0.000u      0.000s      0.000w     34 calls
JK: USO2AO                          :      0.000u      0.000s      0.000w     34 calls
JK: JK                              :      0.000u      0.000s      0.004w     34 calls
DFH: compute_JK()                   :      0.000u      0.000s      0.003w     34 calls
DFH: Grabbing AOs                   :      0.000u      0.000s      0.000w     34 calls
DFH: compute_J                      :      0.000u      0.000s      0.001w     34 calls
DFH: compute_K                      :      0.000u      0.000s      0.001w     34 calls
JK: AO2USO                          :      0.000u      0.000s      0.000w     34 calls
HF: Form F                          :      0.000u      0.000s      0.001w     34 calls
HF: Form D                          :      0.000u      0.000s      0.000w     34 calls
HF: DIIS                            :      0.033u      0.000s      0.017w     29 calls
DIISManager::add_entry              :      0.017u      0.000s      0.002w     29 calls
DIISManager::extrapolate            :      0.000u      0.000s      0.002w     29 calls
bMatrix setup                       :      0.000u      0.000s      0.001w     29 calls
bMatrix pseudoinverse               :      0.000u      0.000s      0.001w     29 calls
New vector                          :      0.000u      0.000s      0.000w     29 calls
HF: Form C                          :      0.000u      0.000s      0.001w     29 calls

--------------------------------------------------------------------------------------
DFH: sparsity prep                  :      0.133u      0.000s      0.072w      5 calls
DFH: initialize()                   :      0.400u      0.017s      0.231w      5 calls
| DFH: AO Construction              :      0.067u      0.000s      0.006w      5 calls
| DFH: AO-Met. Contraction          :      0.000u      0.000s      0.001w      5 calls
HF: Form core H                     :      0.000u      0.000s      0.004w      5 calls
HF: Form S/X                        :      0.000u      0.000s      0.000w      5 calls
HF: Guess                           :      1.167u      0.033s      0.737w      5 calls
| SAD Guess                         :      1.100u      0.017s      0.682w      5 calls
HF: Form G                          :      0.000u      0.000s      0.005w     34 calls
| JK: D                             :      0.000u      0.000s      0.000w     34 calls
| JK: USO2AO                        :      0.000u      0.000s      0.000w     34 calls
| JK: JK                            :      0.000u      0.000s      0.004w     34 calls
| | DFH: compute_JK()               :      0.000u      0.000s      0.003w     34 calls
| | | DFH: Grabbing AOs             :      0.000u      0.000s      0.000w     34 calls
| | | DFH: compute_J                :      0.000u      0.000s      0.001w     34 calls
| | | DFH: compute_K                :      0.000u      0.000s      0.001w     34 calls
| JK: AO2USO                        :      0.000u      0.000s      0.000w     34 calls
HF: Form F                          :      0.000u      0.000s      0.001w     34 calls
HF: Form D                          :      0.000u      0.000s      0.000w     34 calls
HF: DIIS                            :      0.033u      0.000s      0.017w     29 calls
| DIISManager::add_entry            :      0.017u      0.000s      0.002w     29 calls
| DIISManager::extrapolate          :      0.000u      0.000s      0.002w     29 calls
| | bMatrix setup                   :      0.000u      0.000s      0.001w     29 calls
| | bMatrix pseudoinverse           :      0.000u      0.000s      0.001w     29 calls
| | New vector                      :      0.000u      0.000s      0.000w     29 calls
HF: Form C                          :      0.000u      0.000s      0.001w     29 calls

**************************************************************************************

Host: node3415.kirlia.os

Timers On : Wed Mar 31 12:32:21 2021
Timers Off: Wed Mar 31 12:35:22 2021

Wall Time:      180.97 seconds

                                                       Time (seconds)
Module                                       User      System        Wall        Calls
DFH: sparsity prep                  :      0.017u      0.000s      0.017w      1 calls
DFH: initialize()                   :      0.083u      0.000s      0.049w      1 calls
DFH: AO Construction                :      0.017u      0.000s      0.004w      1 calls
DFH: AO-Met. Contraction            :      0.000u      0.000s      0.000w      1 calls
HF: Form core H                     :      0.000u      0.000s      0.001w      1 calls
HF: Form S/X                        :      0.000u      0.000s      0.000w      1 calls
HF: Guess                           :      0.267u      0.017s      0.174w      1 calls
SAD Guess                           :      0.250u      0.017s      0.163w      1 calls
HF: Form G                          :      0.000u      0.017s      0.004w     12 calls
JK: D                               :      0.000u      0.000s      0.000w     12 calls
JK: USO2AO                          :      0.000u      0.000s      0.000w     12 calls
JK: JK                              :      0.000u      0.017s      0.003w     12 calls
DFH: compute_JK()                   :      0.000u      0.017s      0.003w     12 calls
DFH: Grabbing AOs                   :      0.000u      0.000s      0.000w     12 calls
DFH: compute_J                      :      0.000u      0.000s      0.001w     12 calls
DFH: compute_K                      :      0.000u      0.017s      0.002w     12 calls
JK: AO2USO                          :      0.000u      0.000s      0.000w     12 calls
HF: Form F                          :      0.000u      0.000s      0.000w     12 calls
HF: Form D                          :      0.000u      0.000s      0.000w     12 calls
HF: DIIS                            :      0.000u      0.000s      0.007w     11 calls
DIISManager::add_entry              :      0.000u      0.000s      0.001w     11 calls
DIISManager::extrapolate            :      0.000u      0.000s      0.001w     11 calls
bMatrix setup                       :      0.000u      0.000s      0.001w     11 calls
bMatrix pseudoinverse               :      0.000u      0.000s      0.000w     11 calls
New vector                          :      0.000u      0.000s      0.000w     11 calls
HF: Form C                          :      0.000u      0.000s      0.002w     11 calls

--------------------------------------------------------------------------------------
DFH: sparsity prep                  :      0.017u      0.000s      0.017w      1 calls
DFH: initialize()                   :      0.083u      0.000s      0.049w      1 calls
| DFH: AO Construction              :      0.017u      0.000s      0.004w      1 calls
| DFH: AO-Met. Contraction          :      0.000u      0.000s      0.000w      1 calls
HF: Form core H                     :      0.000u      0.000s      0.001w      1 calls
HF: Form S/X                        :      0.000u      0.000s      0.000w      1 calls
HF: Guess                           :      0.267u      0.017s      0.174w      1 calls
| SAD Guess                         :      0.250u      0.017s      0.163w      1 calls
HF: Form G                          :      0.000u      0.017s      0.004w     12 calls
| JK: D                             :      0.000u      0.000s      0.000w     12 calls
| JK: USO2AO                        :      0.000u      0.000s      0.000w     12 calls
| JK: JK                            :      0.000u      0.017s      0.003w     12 calls
| | DFH: compute_JK()               :      0.000u      0.017s      0.003w     12 calls
| | | DFH: Grabbing AOs             :      0.000u      0.000s      0.000w     12 calls
| | | DFH: compute_J                :      0.000u      0.000s      0.001w     12 calls
| | | DFH: compute_K                :      0.000u      0.017s      0.002w     12 calls
| JK: AO2USO                        :      0.000u      0.000s      0.000w     12 calls
HF: Form F                          :      0.000u      0.000s      0.000w     12 calls
HF: Form D                          :      0.000u      0.000s      0.000w     12 calls
HF: DIIS                            :      0.000u      0.000s      0.007w     11 calls
| DIISManager::add_entry            :      0.000u      0.000s      0.001w     11 calls
| DIISManager::extrapolate          :      0.000u      0.000s      0.001w     11 calls
| | bMatrix setup                   :      0.000u      0.000s      0.001w     11 calls
| | bMatrix pseudoinverse           :      0.000u      0.000s      0.000w     11 calls
| | New vector                      :      0.000u      0.000s      0.000w     11 calls
HF: Form C                          :      0.000u      0.000s      0.002w     11 calls

**************************************************************************************

Host: node3415.kirlia.os

Timers On : Wed Mar 31 12:36:00 2021
Timers Off: Wed Mar 31 12:39:10 2021

Wall Time:      189.63 seconds

                                                       Time (seconds)
Module                                       User      System        Wall        Calls
DFH: sparsity prep                  :      0.100u      0.000s      0.061w      4 calls
DFH: initialize()                   :      0.183u      0.017s      0.138w      3 calls
DFH: AO Construction                :      0.000u      0.000s      0.004w      3 calls
DFH: AO-Met. Contraction            :      0.000u      0.000s      0.000w      3 calls
HF: Form core H                     :      0.033u      0.000s      0.002w      3 calls
HF: Form S/X                        :      0.000u      0.000s      0.000w      3 calls
HF: Guess                           :      0.683u      0.017s      0.413w      3 calls
SAD Guess                           :      0.633u      0.017s      0.380w      3 calls
HF: Form G                          :      0.000u      0.000s      0.003w     21 calls
JK: D                               :      0.000u      0.000s      0.000w     21 calls
JK: USO2AO                          :      0.000u      0.000s      0.000w     21 calls
JK: JK                              :      0.000u      0.000s      0.002w     21 calls
DFH: compute_JK()                   :      0.000u      0.000s      0.002w     21 calls
DFH: Grabbing AOs                   :      0.000u      0.000s      0.000w     21 calls
DFH: compute_J                      :      0.000u      0.000s      0.001w     21 calls
DFH: compute_K                      :      0.000u      0.000s      0.001w     21 calls
JK: AO2USO                          :      0.000u      0.000s      0.000w     21 calls
HF: Form F                          :      0.000u      0.000s      0.001w     21 calls
HF: Form D                          :      0.000u      0.000s      0.000w     21 calls
HF: DIIS                            :      0.017u      0.000s      0.011w     18 calls
DIISManager::add_entry              :      0.000u      0.000s      0.001w     18 calls
DIISManager::extrapolate            :      0.000u      0.000s      0.001w     18 calls
bMatrix setup                       :      0.000u      0.000s      0.000w     18 calls
bMatrix pseudoinverse               :      0.000u      0.000s      0.000w     18 calls
New vector                          :      0.000u      0.000s      0.000w     18 calls
HF: Form C                          :      0.000u      0.017s      0.001w     18 calls

--------------------------------------------------------------------------------------
DFH: sparsity prep                  :      0.100u      0.000s      0.061w      4 calls
DFH: initialize()                   :      0.183u      0.017s      0.138w      3 calls
| DFH: AO Construction              :      0.000u      0.000s      0.004w      3 calls
| DFH: AO-Met. Contraction          :      0.000u      0.000s      0.000w      3 calls
HF: Form core H                     :      0.033u      0.000s      0.002w      3 calls
HF: Form S/X                        :      0.000u      0.000s      0.000w      3 calls
HF: Guess                           :      0.683u      0.017s      0.413w      3 calls
| SAD Guess                         :      0.633u      0.017s      0.380w      3 calls
HF: Form G                          :      0.000u      0.000s      0.003w     21 calls
| JK: D                             :      0.000u      0.000s      0.000w     21 calls
| JK: USO2AO                        :      0.000u      0.000s      0.000w     21 calls
| JK: JK                            :      0.000u      0.000s      0.002w     21 calls
| | DFH: compute_JK()               :      0.000u      0.000s      0.002w     21 calls
| | | DFH: Grabbing AOs             :      0.000u      0.000s      0.000w     21 calls
| | | DFH: compute_J                :      0.000u      0.000s      0.001w     21 calls
| | | DFH: compute_K                :      0.000u      0.000s      0.001w     21 calls
| JK: AO2USO                        :      0.000u      0.000s      0.000w     21 calls
HF: Form F                          :      0.000u      0.000s      0.001w     21 calls
HF: Form D                          :      0.000u      0.000s      0.000w     21 calls
HF: DIIS                            :      0.017u      0.000s      0.011w     18 calls
| DIISManager::add_entry            :      0.000u      0.000s      0.001w     18 calls
| DIISManager::extrapolate          :      0.000u      0.000s      0.001w     18 calls
| | bMatrix setup                   :      0.000u      0.000s      0.000w     18 calls
| | bMatrix pseudoinverse           :      0.000u      0.000s      0.000w     18 calls
| | New vector                      :      0.000u      0.000s      0.000w     18 calls
HF: Form C                          :      0.000u      0.017s      0.001w     18 calls

**************************************************************************************

Host: node3415.kirlia.os

Timers On : Wed Mar 31 12:39:16 2021
Timers Off: Wed Mar 31 13:04:01 2021

Wall Time:     1484.42 seconds

                                                       Time (seconds)
Module                                       User      System        Wall        Calls
DFH: sparsity prep                  :      0.267u      0.017s      0.152w      9 calls
DFH: initialize()                   :      0.150u      0.000s      0.085w      2 calls
DFH: AO Construction                :      0.000u      0.000s      0.002w      2 calls
DFH: AO-Met. Contraction            :      0.000u      0.000s      0.000w      2 calls
HF: Form core H                     :      0.000u      0.000s      0.001w      2 calls
HF: Form S/X                        :      0.000u      0.000s      0.000w      2 calls
HF: Guess                           :      0.267u      0.000s      0.173w      2 calls
SAD Guess                           :      0.233u      0.000s      0.152w      2 calls
HF: Form G                          :      0.000u      0.000s      0.003w     16 calls
JK: D                               :      0.000u      0.000s      0.000w     16 calls
JK: USO2AO                          :      0.000u      0.000s      0.001w     16 calls
JK: JK                              :      0.000u      0.000s      0.002w     16 calls
DFH: compute_JK()                   :      0.000u      0.000s      0.002w     16 calls
DFH: Grabbing AOs                   :      0.000u      0.000s      0.000w     16 calls
DFH: compute_J                      :      0.000u      0.000s      0.001w     16 calls
DFH: compute_K                      :      0.000u      0.000s      0.001w     16 calls
JK: AO2USO                          :      0.000u      0.000s      0.000w     16 calls
HF: Form F                          :      0.000u      0.000s      0.001w     16 calls
HF: Form D                          :      0.000u      0.000s      0.000w     16 calls
HF: DIIS                            :      0.000u      0.000s      0.009w     14 calls
DIISManager::add_entry              :      0.000u      0.000s      0.001w     14 calls
DIISManager::extrapolate            :      0.000u      0.000s      0.001w     14 calls
bMatrix setup                       :      0.000u      0.000s      0.000w     14 calls
bMatrix pseudoinverse               :      0.000u      0.000s      0.000w     14 calls
New vector                          :      0.000u      0.000s      0.000w     14 calls
HF: Form C                          :      0.000u      0.000s      0.001w     14 calls

--------------------------------------------------------------------------------------
DFH: sparsity prep                  :      0.267u      0.017s      0.152w      9 calls
DFH: initialize()                   :      0.150u      0.000s      0.085w      2 calls
| DFH: AO Construction              :      0.000u      0.000s      0.002w      2 calls
| DFH: AO-Met. Contraction          :      0.000u      0.000s      0.000w      2 calls
HF: Form core H                     :      0.000u      0.000s      0.001w      2 calls
HF: Form S/X                        :      0.000u      0.000s      0.000w      2 calls
HF: Guess                           :      0.267u      0.000s      0.173w      2 calls
| SAD Guess                         :      0.233u      0.000s      0.152w      2 calls
HF: Form G                          :      0.000u      0.000s      0.003w     16 calls
| JK: D                             :      0.000u      0.000s      0.000w     16 calls
| JK: USO2AO                        :      0.000u      0.000s      0.001w     16 calls
| JK: JK                            :      0.000u      0.000s      0.002w     16 calls
| | DFH: compute_JK()               :      0.000u      0.000s      0.002w     16 calls
| | | DFH: Grabbing AOs             :      0.000u      0.000s      0.000w     16 calls
| | | DFH: compute_J                :      0.000u      0.000s      0.001w     16 calls
| | | DFH: compute_K                :      0.000u      0.000s      0.001w     16 calls
| JK: AO2USO                        :      0.000u      0.000s      0.000w     16 calls
HF: Form F                          :      0.000u      0.000s      0.001w     16 calls
HF: Form D                          :      0.000u      0.000s      0.000w     16 calls
HF: DIIS                            :      0.000u      0.000s      0.009w     14 calls
| DIISManager::add_entry            :      0.000u      0.000s      0.001w     14 calls
| DIISManager::extrapolate          :      0.000u      0.000s      0.001w     14 calls
| | bMatrix setup                   :      0.000u      0.000s      0.000w     14 calls
| | bMatrix pseudoinverse           :      0.000u      0.000s      0.000w     14 calls
| | New vector                      :      0.000u      0.000s      0.000w     14 calls
HF: Form C                          :      0.000u      0.000s      0.001w     14 calls

**************************************************************************************

Host: node3415.kirlia.os

Timers On : Wed Mar 31 13:04:01 2021
Timers Off: Wed Mar 31 13:05:52 2021

Wall Time:      110.13 seconds

                                                       Time (seconds)
Module                                       User      System        Wall        Calls
DFH: sparsity prep                  :      0.117u      0.017s      0.068w      4 calls
DFH: initialize()                   :      0.067u      0.000s      0.043w      1 calls
DFH: AO Construction                :      0.000u      0.000s      0.001w      1 calls
DFH: AO-Met. Contraction            :      0.000u      0.000s      0.000w      1 calls
HF: Form core H                     :      0.000u      0.000s      0.001w      1 calls
HF: Form S/X                        :      0.000u      0.000s      0.000w      1 calls
HF: Guess                           :      0.133u      0.017s      0.087w      1 calls
SAD Guess                           :      0.100u      0.017s      0.076w      1 calls
HF: Form G                          :      0.000u      0.000s      0.002w      8 calls
JK: D                               :      0.000u      0.000s      0.000w      8 calls
JK: USO2AO                          :      0.000u      0.000s      0.000w      8 calls
JK: JK                              :      0.000u      0.000s      0.001w      8 calls
DFH: compute_JK()                   :      0.000u      0.000s      0.001w      8 calls
DFH: Grabbing AOs                   :      0.000u      0.000s      0.000w      8 calls
DFH: compute_J                      :      0.000u      0.000s      0.000w      8 calls
DFH: compute_K                      :      0.000u      0.000s      0.000w      8 calls
JK: AO2USO                          :      0.000u      0.000s      0.000w      8 calls
HF: Form F                          :      0.000u      0.000s      0.000w      8 calls
HF: Form D                          :      0.000u      0.000s      0.000w      8 calls
HF: DIIS                            :      0.017u      0.000s      0.004w      7 calls
DIISManager::add_entry              :      0.000u      0.000s      0.000w      7 calls
DIISManager::extrapolate            :      0.000u      0.000s      0.001w      7 calls
bMatrix setup                       :      0.000u      0.000s      0.000w      7 calls
bMatrix pseudoinverse               :      0.000u      0.000s      0.000w      7 calls
New vector                          :      0.000u      0.000s      0.000w      7 calls
HF: Form C                          :      0.000u      0.000s      0.000w      7 calls

--------------------------------------------------------------------------------------
DFH: sparsity prep                  :      0.117u      0.017s      0.068w      4 calls
DFH: initialize()                   :      0.067u      0.000s      0.043w      1 calls
| DFH: AO Construction              :      0.000u      0.000s      0.001w      1 calls
| DFH: AO-Met. Contraction          :      0.000u      0.000s      0.000w      1 calls
HF: Form core H                     :      0.000u      0.000s      0.001w      1 calls
HF: Form S/X                        :      0.000u      0.000s      0.000w      1 calls
HF: Guess                           :      0.133u      0.017s      0.087w      1 calls
| SAD Guess                         :      0.100u      0.017s      0.076w      1 calls
HF: Form G                          :      0.000u      0.000s      0.002w      8 calls
| JK: D                             :      0.000u      0.000s      0.000w      8 calls
| JK: USO2AO                        :      0.000u      0.000s      0.000w      8 calls
| JK: JK                            :      0.000u      0.000s      0.001w      8 calls
| | DFH: compute_JK()               :      0.000u      0.000s      0.001w      8 calls
| | | DFH: Grabbing AOs             :      0.000u      0.000s      0.000w      8 calls
| | | DFH: compute_J                :      0.000u      0.000s      0.000w      8 calls
| | | DFH: compute_K                :      0.000u      0.000s      0.000w      8 calls
[...]
HF: Guess                           :      0.600u      0.017s      0.380w      2 calls
| SAD Guess                         :      0.567u      0.017s      0.357w      2 calls
HF: Form G                          :      0.000u      0.017s      0.011w     16 calls
| JK: D                             :      0.000u      0.000s      0.000w     16 calls
| JK: USO2AO                        :      0.000u      0.000s      0.001w     16 calls
| JK: JK                            :      0.000u      0.017s      0.009w     16 calls
| | DFH: compute_JK()               :      0.000u      0.017s      0.008w      7 calls
| | | DFH: Grabbing AOs             :      0.000u      0.000s      0.000w      7 calls
| | | DFH: compute_J                :      0.000u      0.017s      0.003w      7 calls
| | | DFH: compute_K                :      0.000u      0.000s      0.004w      7 calls
| | PK computes JK                  :      0.000u      0.000s      0.001w      9 calls
| JK: AO2USO                        :      0.000u      0.000s      0.000w     16 calls
HF: Form F                          :      0.000u      0.000s      0.001w     16 calls
HF: Form D                          :      0.000u      0.000s      0.000w     16 calls
HF: DIIS                            :      0.017u      0.000s      0.012w     14 calls
| DIISManager::add_entry            :      0.017u      0.000s      0.002w     14 calls
| DIISManager::extrapolate          :      0.000u      0.000s      0.002w     14 calls
| | bMatrix setup                   :      0.000u      0.000s      0.001w     14 calls
| | bMatrix pseudoinverse           :      0.000u      0.000s      0.001w     14 calls
| | New vector                      :      0.000u      0.000s      0.001w     14 calls
HF: Form C                          :      0.000u      0.000s      0.003w     14 calls
Total PK formation time             :      0.083u      0.000s      0.051w      1 calls

**************************************************************************************

Host: node3105.skitty.os

Timers On : Wed Apr  7 13:49:26 2021
Timers Off: Wed Apr  7 13:50:19 2021

Wall Time:       53.26 seconds

                                                       Time (seconds)
Module                                       User      System        Wall        Calls

--------------------------------------------------------------------------------------

**************************************************************************************

Host: node3105.skitty.os

Timers On : Wed Apr  7 13:50:26 2021
Timers Off: Wed Apr  7 13:51:23 2021

Wall Time:       56.69 seconds

                                                       Time (seconds)
Module                                       User      System        Wall        Calls
Total PK formation time             :      0.200u      0.000s      0.117w      2 calls
HF: Form core H                     :      0.000u      0.000s      0.003w      2 calls
HF: Form S/X                        :      0.000u      0.000s      0.001w      2 calls
HF: Guess                           :      0.583u      0.000s      0.357w      2 calls
SAD Guess                           :      0.550u      0.000s      0.333w      2 calls
HF: Form G                          :      0.017u      0.000s      0.003w     19 calls
JK: D                               :      0.000u      0.000s      0.000w     19 calls
JK: USO2AO                          :      0.017u      0.000s      0.000w     19 calls
JK: JK                              :      0.000u      0.000s      0.002w     19 calls
PK computes JK                      :      0.000u      0.000s      0.001w     19 calls
JK: AO2USO                          :      0.000u      0.000s      0.000w     19 calls
HF: Form F                          :      0.000u      0.000s      0.001w     19 calls
HF: Form D                          :      0.017u      0.000s      0.000w     19 calls
HF: DIIS                            :      0.000u      0.000s      0.014w     17 calls
DIISManager::add_entry              :      0.000u      0.000s      0.002w     17 calls
DIISManager::extrapolate            :      0.000u      0.000s      0.003w     17 calls
bMatrix setup                       :      0.000u      0.000s      0.001w     17 calls
bMatrix pseudoinverse               :      0.000u      0.000s      0.001w     17 calls
New vector                          :      0.000u      0.000s      0.001w     17 calls
HF: Form C                          :      0.000u      0.000s      0.003w     17 calls

--------------------------------------------------------------------------------------
Total PK formation time             :      0.200u      0.000s      0.117w      2 calls
HF: Form core H                     :      0.000u      0.000s      0.003w      2 calls
HF: Form S/X                        :      0.000u      0.000s      0.001w      2 calls
HF: Guess                           :      0.583u      0.000s      0.357w      2 calls
| SAD Guess                         :      0.550u      0.000s      0.333w      2 calls
HF: Form G                          :      0.017u      0.000s      0.003w     19 calls
| JK: D                             :      0.000u      0.000s      0.000w     19 calls
| JK: USO2AO                        :      0.017u      0.000s      0.000w     19 calls
| JK: JK                            :      0.000u      0.000s      0.002w     19 calls
| | PK computes JK                  :      0.000u      0.000s      0.001w     19 calls
| JK: AO2USO                        :      0.000u      0.000s      0.000w     19 calls
HF: Form F                          :      0.000u      0.000s      0.001w     19 calls
HF: Form D                          :      0.017u      0.000s      0.000w     19 calls
HF: DIIS                            :      0.000u      0.000s      0.014w     17 calls
| DIISManager::add_entry            :      0.000u      0.000s      0.002w     17 calls
| DIISManager::extrapolate          :      0.000u      0.000s      0.003w     17 calls
| | bMatrix setup                   :      0.000u      0.000s      0.001w     17 calls
| | bMatrix pseudoinverse           :      0.000u      0.000s      0.001w     17 calls
| | New vector                      :      0.000u      0.000s      0.001w     17 calls
HF: Form C                          :      0.000u      0.000s      0.003w     17 calls

**************************************************************************************

Host: node3105.skitty.os

Timers On : Thu Apr  8 06:46:05 2021
Timers Off: Thu Apr  8 06:49:41 2021

Wall Time:      215.53 seconds

                                                       Time (seconds)
Module                                       User      System        Wall        Calls
Total PK formation time             :      0.050u      0.000s      0.032w      1 calls
HF: Form core H                     :      0.000u      0.000s      0.002w      1 calls
HF: Form S/X                        :      0.000u      0.000s      0.000w      1 calls
HF: Guess                           :      0.150u      0.067s      0.238w      1 calls
SAD Guess                           :      0.133u      0.067s      0.226w      1 calls
HF: Form G                          :      0.000u      0.000s      0.001w      6 calls
JK: D                               :      0.000u      0.000s      0.000w      6 calls
JK: USO2AO                          :      0.000u      0.000s      0.000w      6 calls
JK: JK                              :      0.000u      0.000s      0.000w      6 calls
PK computes JK                      :      0.000u      0.000s      0.000w      6 calls
JK: AO2USO                          :      0.000u      0.000s      0.000w      6 calls
HF: Form F                          :      0.000u      0.000s      0.000w      6 calls
HF: Form D                          :      0.000u      0.000s      0.000w      6 calls
HF: DIIS                            :      0.000u      0.000s      0.003w      5 calls
DIISManager::add_entry              :      0.000u      0.000s      0.001w      5 calls
DIISManager::extrapolate            :      0.000u      0.000s      0.000w      5 calls
bMatrix setup                       :      0.000u      0.000s      0.000w      5 calls
bMatrix pseudoinverse               :      0.000u      0.000s      0.000w      5 calls
New vector                          :      0.000u      0.000s      0.000w      5 calls
HF: Form C                          :      0.000u      0.000s      0.000w      5 calls

--------------------------------------------------------------------------------------
Total PK formation time             :      0.050u      0.000s      0.032w      1 calls
HF: Form core H                     :      0.000u      0.000s      0.002w      1 calls
HF: Form S/X                        :      0.000u      0.000s      0.000w      1 calls
HF: Guess                           :      0.150u      0.067s      0.238w      1 calls
| SAD Guess                         :      0.133u      0.067s      0.226w      1 calls
HF: Form G                          :      0.000u      0.000s      0.001w      6 calls
| JK: D                             :      0.000u      0.000s      0.000w      6 calls
| JK: USO2AO                        :      0.000u      0.000s      0.000w      6 calls
| JK: JK                            :      0.000u      0.000s      0.000w      6 calls
| | PK computes JK                  :      0.000u      0.000s      0.000w      6 calls
| JK: AO2USO                        :      0.000u      0.000s      0.000w      6 calls
HF: Form F                          :      0.000u      0.000s      0.000w      6 calls
HF: Form D                          :      0.000u      0.000s      0.000w      6 calls
HF: DIIS                            :      0.000u      0.000s      0.003w      5 calls
| DIISManager::add_entry            :      0.000u      0.000s      0.001w      5 calls
| DIISManager::extrapolate          :      0.000u      0.000s      0.000w      5 calls
| | bMatrix setup                   :      0.000u      0.000s      0.000w      5 calls
| | bMatrix pseudoinverse           :      0.000u      0.000s      0.000w      5 calls
| | New vector                      :      0.000u      0.000s      0.000w      5 calls
HF: Form C                          :      0.000u      0.000s      0.000w      5 calls

**************************************************************************************

Host: node3105.skitty.os

Timers On : Thu Apr  8 06:49:46 2021
Timers Off: Thu Apr  8 07:00:00 2021

Wall Time:      613.79 seconds

                                                       Time (seconds)
Module                                       User      System        Wall        Calls
Total PK formation time             :      0.400u      0.000s      0.237w      1 calls
HF: Form core H                     :      0.000u      0.000s      0.002w      1 calls
HF: Form S/X                        :      0.000u      0.000s      0.001w      1 calls
HF: Guess                           :      0.300u      0.000s      0.187w      1 calls
SAD Guess                           :      0.283u      0.000s      0.175w      1 calls
HF: Form G                          :      0.017u      0.000s      0.019w      7 calls
JK: D                               :      0.000u      0.000s      0.000w      7 calls
JK: USO2AO                          :      0.000u      0.000s      0.001w      7 calls
JK: JK                              :      0.017u      0.000s      0.017w      7 calls
PK computes JK                      :      0.017u      0.000s      0.017w      7 calls
JK: AO2USO                          :      0.000u      0.000s      0.001w      7 calls
HF: Form F                          :      0.000u      0.000s      0.002w      7 calls
HF: Form D                          :      0.000u      0.000s      0.000w      7 calls
HF: DIIS                            :      0.033u      0.000s      0.006w      6 calls
DIISManager::add_entry              :      0.000u      0.000s      0.001w      6 calls
DIISManager::extrapolate            :      0.000u      0.000s      0.001w      6 calls
bMatrix setup                       :      0.000u      0.000s      0.000w      6 calls
bMatrix pseudoinverse               :      0.000u      0.000s      0.000w      6 calls
New vector                          :      0.000u      0.000s      0.000w      6 calls
HF: Form C                          :      0.000u      0.000s      0.003w      6 calls

--------------------------------------------------------------------------------------
Total PK formation time             :      0.400u      0.000s      0.237w      1 calls
HF: Form core H                     :      0.000u      0.000s      0.002w      1 calls
HF: Form S/X                        :      0.000u      0.000s      0.001w      1 calls
HF: Guess                           :      0.300u      0.000s      0.187w      1 calls
| SAD Guess                         :      0.283u      0.000s      0.175w      1 calls
HF: Form G                          :      0.017u      0.000s      0.019w      7 calls
| JK: D                             :      0.000u      0.000s      0.000w      7 calls
| JK: USO2AO                        :      0.000u      0.000s      0.001w      7 calls
| JK: JK                            :      0.017u      0.000s      0.017w      7 calls
| | PK computes JK                  :      0.017u      0.000s      0.017w      7 calls
| JK: AO2USO                        :      0.000u      0.000s      0.001w      7 calls
HF: Form F                          :      0.000u      0.000s      0.002w      7 calls
HF: Form D                          :      0.000u      0.000s      0.000w      7 calls
HF: DIIS                            :      0.033u      0.000s      0.006w      6 calls
| DIISManager::add_entry            :      0.000u      0.000s      0.001w      6 calls
| DIISManager::extrapolate          :      0.000u      0.000s      0.001w      6 calls
| | bMatrix setup                   :      0.000u      0.000s      0.000w      6 calls
| | bMatrix pseudoinverse           :      0.000u      0.000s      0.000w      6 calls
| | New vector                      :      0.000u      0.000s      0.000w      6 calls
HF: Form C                          :      0.000u      0.000s      0.003w      6 calls

**************************************************************************************

Host: node3105.skitty.os

Timers On : Thu Apr  8 07:00:30 2021
Timers Off: Thu Apr  8 07:06:41 2021

Wall Time:      370.66 seconds

                                                       Time (seconds)
Module                                       User      System        Wall        Calls

--------------------------------------------------------------------------------------

**************************************************************************************

Host: node3105.skitty.os

Timers On : Thu Apr  8 07:07:36 2021
Timers Off: Thu Apr  8 07:08:44 2021

Wall Time:       67.68 seconds

                                                       Time (seconds)
Module                                       User      System        Wall        Calls

--------------------------------------------------------------------------------------

**************************************************************************************

Host: node3105.skitty.os

Timers On : Thu Apr  8 07:09:08 2021
Timers Off: Thu Apr  8 07:11:29 2021

Wall Time:      141.25 seconds

                                                       Time (seconds)
Module                                       User      System        Wall        Calls

--------------------------------------------------------------------------------------

**************************************************************************************

Host: node3105.skitty.os

Timers On : Thu Apr  8 07:11:56 2021
Timers Off: Thu Apr  8 09:25:17 2021

Wall Time:     8000.40 seconds

                                                       Time (seconds)
Module                                       User      System        Wall        Calls
Total PK formation time             :      0.100u      0.000s      0.057w      1 calls
HF: Form core H                     :      0.000u      0.000s      0.001w      1 calls
HF: Form S/X                        :      0.000u      0.000s      0.000w      1 calls
HF: Guess                           :      0.283u      0.000s      0.176w      1 calls
SAD Guess                           :      0.267u      0.000s      0.165w      1 calls
HF: Form G                          :      0.000u      0.000s      0.001w      8 calls
JK: D                               :      0.000u      0.000s      0.000w      8 calls
JK: USO2AO                          :      0.000u      0.000s      0.000w      8 calls
JK: JK                              :      0.000u      0.000s      0.001w      8 calls
PK computes JK                      :      0.000u      0.000s      0.001w      8 calls
JK: AO2USO                          :      0.000u      0.000s      0.000w      8 calls
HF: Form F                          :      0.000u      0.000s      0.001w      8 calls
HF: Form D                          :      0.000u      0.000s      0.000w      8 calls
HF: DIIS                            :      0.017u      0.000s      0.006w      7 calls
DIISManager::add_entry              :      0.017u      0.000s      0.001w      7 calls
DIISManager::extrapolate            :      0.000u      0.000s      0.001w      7 calls
bMatrix setup                       :      0.000u      0.000s      0.000w      7 calls
bMatrix pseudoinverse               :      0.000u      0.000s      0.000w      7 calls
New vector                          :      0.000u      0.000s      0.000w      7 calls
HF: Form C                          :      0.000u      0.000s      0.001w      7 calls

--------------------------------------------------------------------------------------
Total PK formation time             :      0.100u      0.000s      0.057w      1 calls
HF: Form core H                     :      0.000u      0.000s      0.001w      1 calls
HF: Form S/X                        :      0.000u      0.000s      0.000w      1 calls
HF: Guess                           :      0.283u      0.000s      0.176w      1 calls
| SAD Guess                         :      0.267u      0.000s      0.165w      1 calls
HF: Form G                          :      0.000u      0.000s      0.001w      8 calls
| JK: D                             :      0.000u      0.000s      0.000w      8 calls
| JK: USO2AO                        :      0.000u      0.000s      0.000w      8 calls
| JK: JK                            :      0.000u      0.000s      0.001w      8 calls
| | PK computes JK                  :      0.000u      0.000s      0.001w      8 calls
| JK: AO2USO                        :      0.000u      0.000s      0.000w      8 calls
HF: Form F                          :      0.000u      0.000s      0.001w      8 calls
HF: Form D                          :      0.000u      0.000s      0.000w      8 calls
HF: DIIS                            :      0.017u      0.000s      0.006w      7 calls
| DIISManager::add_entry            :      0.017u      0.000s      0.001w      7 calls
| DIISManager::extrapolate          :      0.000u      0.000s      0.001w      7 calls
| | bMatrix setup                   :      0.000u      0.000s      0.000w      7 calls
| | bMatrix pseudoinverse           :      0.000u      0.000s      0.000w      7 calls
| | New vector                      :      0.000u      0.000s      0.000w      7 calls
HF: Form C                          :      0.000u      0.000s      0.001w      7 calls

**************************************************************************************
